8
REF_energy=-444.8168804296038843 charge=0 Properties=species:S:1:pos:R:3:REF_forces:R:3
Na	2.8087883186978040	3.0145024676544305	4.4291338125851354	-0.0001487695280655	-0.0000739938115900	0.0000409165698628
Na	4.8330710357706108	1.5951602311121535	1.9197345259271230	0.0000982665659480	-0.0000651348219611	0.0000099031101287
Na	2.2819223380705509	5.5672084884065995	2.0598673428559313	-0.0000049896592731	0.0001370729541296	0.0000585176157048
Na	5.6158000211924479	4.8703552673748272	2.9511518125967919	-0.0000060184334018	0.0000237093557235	-0.0000834464050738
Na	4.8460946919968118	4.4875300708628982	-0.2941037046775939	0.0001163514331608	-0.0000214443765588	0.0000556351184064
Na	1.3941197559783809	4.4801736503136462	-0.9898048924781223	-0.0000869076782980	-0.0000794478493741	-0.0000875357366402
Na	3.3789034203872448	1.3880903741090878	-1.0999363562382609	-0.0001505724074238	0.0000712930136477	0.0000137044670754
Na	1.2392716989008317	2.1047168485061398	1.6039346273403838	0.0001826397073535	0.0000079455359832	-0.0000076947394642
8
REF_energy=-444.7238207122556446 charge=0 Properties=species:S:1:pos:R:3:REF_forces:R:3
Na	3.6454655004650380	2.3746656694287007	-0.4426597715851009	-0.0000340556471877	0.0000199564036726	0.0000214682736712
Na	2.1852021630311520	5.4621639188940430	4.1607155647587346	-0.0000043808063397	0.0000330613810031	0.0000038953045962
Na	0.1715303970977071	2.3801898636625229	-0.2538316120005162	0.0000037947003588	-0.0000134900073424	-0.0000000941419869
Na	4.9097250882832828	4.3068351291487863	2.3320476439188123	-0.0000371585817313	-0.0000204510605285	0.0000158527339493
Na	1.8411373220863783	5.2779352063872933	0.7050059996314114	0.0000281907483581	-0.0000096168445886	-0.0000304082270032
Na	5.0739533483781782	0.8329598004632450	2.3295564768678028	0.0000070410738330	-0.0000180458924234	-0.0000222972859006
Na	1.9442311663586282	2.2969522987550390	2.7366322143547137	0.0000331209505820	-0.0000064147871954	0.0000065117774792
Na	4.9090692270667651	5.5817686578993060	-0.9049329344104996	0.0000034475621268	0.0000150008074027	0.0000050715651948
8
REF_energy=-444.6983674398646258 charge=0 Properties=species:S:1:pos:R:3:REF_forces:R:3
Na	2.8761428724736557	2.8761429452580787	3.0164043615862468	-0.0000143361282737	-0.0000143353103966	-0.0000554235275814
Na	6.1660513894713658	2.2152536290790588	1.7254526547551383	-0.0000079357678241	-0.0000017518596482	-0.0000165707802149
Na	2.2152536674506229	6.1660514660576604	1.7254526065761857	-0.0000017516866360	-0.0000079345030394	-0.0000165695912567
Na	5.2173047372025092	5.2173047222659434	3.2540784713710962	0.0000003690436018	0.0000003691799248	0.0000066859915729
Na	4.6017596030397065	4.6017595992548905	-0.4610560838774306	0.0000298288067764	0.0000298287457521	0.0000099185602296
Na	1.2793139056703293	3.7132634472024098	-0.4280912727210467	-0.0000160478226447	-0.0000008186535605	0.0000332527714726
Na	3.7132634633194512	1.2793139318490521	-0.4280913558558034	-0.0000008180565320	-0.0000160487346272	0.0000332527770392
Na	0.7761511331405728	0.7761510308028001	1.6628103568941168	0.0000106916115325	0.0000106911355949	0.0000054537987386
8
REF_energy=-444.6690247381670247 charge=0 Properties=species:S:1:pos:R:3:REF_forces:R:3
Na	3.6975332184772665	0.4916421406523694	3.6878913052765712	-0.0000060273844114	-0.0000322753087071	0.0000050483554443
Na	4.8729351506659722	2.8750658968353786	1.6643725575778947	-0.0000005730567373	-0.0000149099421346	-0.0000019722355932
Na	2.1210810616943796	3.6814684622944065	3.8145785872748452	-0.0000071665863630	0.0000411746319697	0.0000480801621220
Na	6.0249612590527608	5.2660874106017621	-0.3635131752047185	0.0000227397424351	0.0000085495205243	-0.0000051831853825
Na	3.2955806212151928	6.0910894078952689	1.7677329659601682	-0.0000066105883423	0.0000245357828034	-0.0000368058266847
Na	3.0835512140750407	3.5319977567032956	-1.3705488044860297	-0.0000256411445878	0.0000125154565000	0.0000370233129292
Na	1.9090434908966516	1.1217144987846168	0.6749538782729831	0.0000091857122725	-0.0000136629793593	-0.0000477834612827
Na	0.4382727095010737	4.3018830183693737	0.8005674522262052	0.0000140933057342	-0.0000259271615964	0.0000015928784475
8
REF_energy=-444.6672669289218902 charge=0 Properties=species:S:1:pos:R:3:REF_forces:R:3
Na	3.8273802669321935	0.6984198528423765	3.8787493587927440	0.0000105514703102	-0.0000059150602899	-0.0000529180593440
Na	1.0374635306634516	2.5223691815753888	2.8727183235441158	0.0000120714017421	0.0000417983694032	-0.0000382360288156
Na	3.6161867307978985	4.1922419613070687	4.2850029508061667	0.0000321740958267	-0.0000687887664121	-0.0000360189639898
Na	3.1197121008237274	0.4575141271135795	0.4774451695703556	-0.0000399664297156	-0.0000015916895139	0.0000319465120717
Na	6.2805525680205996	5.1673239036007850	2.1532933408688648	0.0000495404607015	0.0000870351646852	0.0000443181638803
Na	3.5032842486646327	4.0344980740857448	0.7150345558633967	-0.0000419283278545	-0.0000566856715211	-0.0000470604972790
Na	6.1242169703522267	1.7028201997931820	1.4029144713932007	-0.0000523806486555	0.0000219855005933	0.0000493321694950
Na	0.7095500269781135	2.8387088071992252	-0.6775337680334624	0.0000299379776451	-0.0000178378469447	0.0000486367039813
8
REF_energy=-444.1109540239840499 charge=0 Properties=species:S:1:pos:R:3:REF_forces:R:3
Na	1.3468132003876288	4.3042352300333766	3.2224680732482369	-0.0000027195745023	-0.0000074566650974	0.0000191719508974
Na	2.5981181515528187	0.1273697153451193	-1.5954881672187782	-0.0000025323368234	-0.0000009021776322	-0.0000141002109788
Na	4.4440837702350828	5.5592853902412340	2.9162495769217016	-0.0000043007286901	-0.0000041985526124	-0.0000054885422229
Na	2.3227712361385935	6.8984482665021654	5.3351551566048769	-0.0000050061837802	0.0000066973797521	-0.0000074995079458
Na	6.5770260001773462	4.1428028537909505	0.4196671775025535	0.0000065723534142	-0.0000046166939779	0.0000041896954602
Na	3.5166727333180443	2.8102398560129167	0.6372432351594126	0.0000042933539280	0.0000099699419573	-0.0000064814544719
Na	5.6358425417823943	1.3558387555801801	-1.8938594661290213	0.0000028962715043	-0.0000029343195188	0.0000001128408829
Na	0.4039131381779520	1.6470207042656275	1.0255241526391001	0.0000007968449495	0.0000034410871293	0.0000100952283791
8
REF_energy=-444.0333523790041568 charge=0 Properties=species:S:1:pos:R:3:REF_forces:R:3
Na	4.8101529046883043	4.4686276677717904	0.5335741193883864	0.0000447627310282	-0.0000360436894302	-0.0000534325916557
Na	1.8405288328661868	3.2347380350223061	1.3904680311265414	0.0000378858243003	0.0000218338638170	-0.0000410026600922
Na	6.3290627078059796	5.2220328415177546	6.7260709896851685	-0.0001131164696661	-0.0000361286737398	-0.0000095805557089
Na	1.1985989239269050	-0.0028718523553119	0.3028840532963533	0.0000281732703702	-0.0000261030492852	0.0001319954253622
Na	3.0545113974708160	2.0551201113234576	-1.6513087950685315	-0.0000766464062732	0.0000586796813437	-0.0001491775797647
Na	1.4161621760031902	1.1441746443648542	3.9377702829120595	-0.0000502069941121	-0.0000435308655920	0.0000226581950354
Na	6.2736407431805237	5.9650105550217107	3.5576014821862003	-0.0000051917076498	0.0000128399921707	0.0000335391014282
Na	3.8111533234587416	3.7501903928318163	4.2056845471088513	0.0001343397520025	0.0000484527407158	0.0000650006653957
8
REF_energy=-444.0155330360692005 charge=0 Properties=species:S:1:pos:R:3:REF_forces:R:3
Na	2.6476763385534583	4.1164785302049109	0.8403727217778567	-0.0000444866402152	0.0000381538388804	-0.0000039640477642
Na	3.6136331920067337	2.2884465390031128	3.5304536651711675	0.0000103885091259	0.0000048851512587	0.0000710198003976
Na	4.5656283995299782	0.4202701042195066	6.2056773731445913	-0.0000479238605644	-0.0000002207052060	0.0000172465011856
Na	5.6997749911327604	9.0836836079335725	2.8071209801716561	0.0000224669169453	-0.0000295430007020	0.0000299414633477
Na	4.6287771778013473	5.6482740654119112	3.1301892037982340	0.0000209180457047	-0.0000188065473088	-0.0000307948996508
Na	2.6276983498907702	-1.1532244764859372	4.0153790225789061	0.0000711839204800	-0.0000163471482705	-0.0000178765322506
Na	6.5995961548409339	7.2253554609725770	5.4081546505671119	0.0000031310958471	0.0000027978754296	-0.0000148829892949
Na	5.7562364472729932	3.8035627753987420	6.0870273085745126	-0.0000356779873234	0.0000190805359186	-0.0000506892959703
8
REF_energy=-444.0152445988310319 charge=0 Properties=species:S:1:pos:R:3:REF_forces:R:3
Na	2.8840636237079673	-0.3213774536440688	1.6848759894251788	-0.0002739972493402	-0.0000163554812821	0.0003614385929006
Na	3.8600756576642996	8.7434688353050500	0.8898239503144817	0.0000686501966365	0.0003477310833814	0.0003850618167682
Na	4.2919819350198392	5.4710302951354546	2.3468300068173140	-0.0002821616451947	-0.0001182673189036	0.0001426477351449
Na	2.6228134602091910	-0.9206809854181126	4.9436098865496412	0.0000201543648298	0.0003516829967805	-0.0003448746051776
Na	3.8654202237378747	2.2320144347161239	3.7005672243622740	0.0001883097251166	-0.0001063704105805	0.0001486458781810
Na	3.6887491361525964	5.9873018188589970	-0.9564085307701258	-0.0002376437383920	-0.0002299621973303	-0.0003492252963927
Na	4.4331273855759479	4.9179158077999547	5.6914367135820694	0.0000086288069054	-0.0000444023118820	-0.0001692387265757
Na	4.1758318394016856	2.5963478821146659	0.0668577719659994	0.0005080595394387	-0.0001840563601834	-0.0001744553948487
8
REF_energy=-443.9794140487720711 charge=0 Properties=species:S:1:pos:R:3:REF_forces:R:3
Na	3.6629510588066325	0.2095483993970055	5.1514001846664748	0.0002622467268411	-0.0000275366071841	0.0000333558537318
Na	0.6000086219718052	0.2097728039056752	3.6566715449727982	0.0002208797622221	0.0000069185423072	-0.0001363777834391
Na	6.8478910549646663	0.2097624983073734	4.5770531295355701	0.0000767319510865	0.0000047124599072	-0.0001221981958137
Na	4.2240341904079939	0.2097618057841601	1.9618893514091025	-0.0001198432007457	0.0000047578926968	0.0001911545960813
Na	0.7984036574524860	0.2097397694001462	0.3922828528953080	-0.0001118845206223	0.0000004390594150	-0.0000699609958546
Na	5.1504957372665165	0.2097722604021711	8.2169884527636334	-0.0000477181605819	0.0000070655268101	0.0000282222008286
Na	1.3426685192210559	0.2097427478193671	7.4689043127459218	-0.0000678088108443	0.0000032658517740	0.0001566518888655
Na	8.4133783512102642	0.2097397094146658	8.0037816404137896	-0.0002126037473554	0.0000003772742738	-0.0000808475643999
8
REF_energy=-443.9636724261218887 charge=0 Properties=species:S:1:pos:R:3:REF_forces:R:3
Na	-25.2078457899644590	4.6008912998677127	6.4289381544597477	-0.0000061439381966	0.0000467875181729	0.0001290648161400
Na	-24.8943455356066359	5.2455737942475036	3.2036630610600594	-0.0000095055453920	0.0000327251060423	-0.0000231200521055
Na	-22.0025998198852406	4.5844825865776198	4.8186101097597867	0.0000168833567072	-0.0000722243510656	-0.0000921768419128
Na	-21.6994533569221026	5.2960072764003963	1.3114523795702335	-0.0000315276656141	-0.0000237352715587	-0.0000173458265259
Na	-19.2332214830806656	3.9524432533710465	6.6914493083501227	-0.0000012627696069	0.0000124942268080	-0.0000673484835591
Na	-18.9143656006248619	4.6641047999689063	3.1724522662796653	-0.0000377697529270	-0.0000554312751863	-0.0000055646365622
Na	-16.0267788777790550	4.1285859307738901	4.8417322742214388	-0.0000266979601170	-0.0000339177339688	0.0001697510390004
Na	-15.6730717863021827	4.7755613408343844	1.6225820325638471	0.0000960242751464	0.0000933017807562	-0.0000932600144748
8
REF_energy=-442.9178339872685797 charge=0 Properties=species:S:1:pos:R:3:REF_forces:R:3
Na	16.5337236725576098	-0.0000090506366858	-0.0000090506369731	-0.0000251878190439	0.0000000013298047	0.0000000013298273
Na	19.9590961576606922	-0.0000091750600546	-0.0000091750754444	0.0000208511424178	-0.0000000544650213	-0.0000000544637595
Na	13.2882500471240323	-0.0000051564762783	-0.0000051564598838	0.0000069356923442	0.0000000592822126	0.0000000592823405
Na	23.2045665178543494	-0.0000066402338420	-0.0000066402558528	-0.0000455921653339	0.0000000316777440	0.0000000316778155
Na	26.6717049164952122	-0.0000017093662271	-0.0000017093737690	0.0000245788126552	-0.0000000624068920	-0.0000000624084060
Na	9.8209969455735422	0.0000016071229496	0.0000016071143712	-0.0000019395308684	-0.0000000159766510	-0.0000000159775939
Na	6.6478731607346999	0.0000136416989960	0.0000136417047107	0.0000121621840751	-0.0000000066282616	-0.0000000066279031
Na	29.8448088037102117	0.0000164829511422	0.0000164829828413	0.0000081916837541	0.0000000471870647	0.0000000471876792
