8
REF_energy=-440.5125421352881858 charge=1 Properties=species:S:1:pos:R:3:REF_forces:R:3
Na	1.7510851529538334	5.1728520909415616	0.9623081969482939	-0.0003314690424795	0.0002279771202930	0.0006532089162774
Na	3.7130575691143721	2.7076912875922887	-0.7703210901413676	-0.0000048807076810	-0.0001668612186892	0.0001635720875506
Na	4.2879319524712214	6.2751547493706417	-1.0177582142289108	-0.0000952124347715	0.0001813044291560	-0.0006657311378006
Na	-0.4593085509093723	3.1888983629965182	2.8386466134819517	0.0001676936554814	0.0000031732595077	-0.0004036858138539
Na	2.7102031317619142	1.7045079642298659	2.5380425657147465	0.0001528403866635	-0.0000295502226013	-0.0001532126805897
Na	5.1087370994065973	4.3330852380359053	1.9786913301065141	0.0004346097742159	-0.0001763038940129	0.0002273360254064
Na	5.8006784959616358	0.7689242654375990	1.4632140030329188	-0.0002857080920397	0.0001408943629449	0.0001950204895271
Na	2.4201130845334760	4.7131486601480352	4.4380924461309146	-0.0000378735393891	-0.0001806338365983	-0.0000165078865171
8
REF_energy=-440.1837647856760327 charge=1 Properties=species:S:1:pos:R:3:REF_forces:R:3
Na	4.9031674998100545	5.2937739514711168	-0.6315104540627057	0.0001291125667597	-0.0004750002127676	-0.0000858552622512
Na	3.5902327684145825	7.5525384183627322	1.5998715985061160	-0.0001483506627443	0.0002364578546938	0.0001337624418180
Na	0.6438534982644445	2.9979390584064234	4.5848735235293105	0.0001214575480083	-0.0002050718930538	0.0000446565645157
Na	2.4640518766223578	4.0927859215050599	1.7939331492035890	-0.0000406121788368	0.0002323083348316	-0.0002331949860079
Na	1.0134836602217296	6.4818655632026223	3.8779401217324079	-0.0002416796224858	-0.0000905767902257	0.0001199099550544
Na	3.8294926630042898	1.8535940419677299	-0.4922668163494279	-0.0001172323727428	0.0000190895400652	-0.0001194730798463
Na	1.9408124949819630	0.6595948428733674	2.3056426893508890	0.0001850785103708	0.0003845122243018	0.0000945754015738
Na	6.0989370557399782	8.6280645897271295	-0.6517221070604006	0.0001122262116708	-0.0001017190578453	0.0000456189651435
8
REF_energy=-444.6581576068182358 charge=-1 Properties=species:S:1:pos:R:3:REF_forces:R:3
Na	-2.0025970765163632	5.3593779297664623	3.6749890574796202	0.0001336411905048	-0.0000994974503982	-0.0002576978835874
Na	3.8585277832502638	7.4398328961983795	1.0386184739731252	-0.0000584043376724	-0.0000687665658361	0.0000527891841863
Na	8.8960806796568761	2.9789339291018155	-0.1493390956198098	0.0000372100423215	-0.0000445676223042	0.0002895330392923
Na	-3.1112464315656538	7.8902561211508262	1.4890749703808510	0.0001070698661084	0.0001033427758106	0.0001357804199275
Na	0.5627438645584728	6.7325684384533275	1.9541819202989663	-0.0000811395973604	-0.0002048366209827	0.0000268190458352
Na	-5.1435156482993563	9.9124433856396355	-0.0616764374811029	-0.0000331275723272	0.0001310639977949	0.0000640154517099
Na	6.6662626260911955	9.2394394291133661	0.4891109879220658	-0.0000231890709041	0.0001401251547090	-0.0001638614272536
Na	7.2761463164489992	5.7758871698487999	0.2721108179754985	-0.0000820605206706	0.0000431363312066	-0.0001473778301101
8
REF_energy=-440.0426584604023219 charge=1 Properties=species:S:1:pos:R:3:REF_forces:R:3
Na	3.6725722968972101	3.1321221055202479	4.0688757668304261	0.0001145750375039	-0.0000645856723766	-0.0002155264286100
Na	1.6463705037483449	6.1076707485799409	3.9601760901987579	0.0000571405029773	-0.0001497905047292	-0.0000050141490779
Na	5.9895924300980248	0.5977298493291614	4.2365781510167704	0.0000462038842543	-0.0000531293306295	0.0001893396223728
Na	5.0841139831613011	6.8311870826396142	4.7624510766897394	-0.0002543279010948	0.0002440537423842	0.0000545841275380
Na	7.1116352771870712	3.8572872079884171	4.8673963857440121	-0.0001439274562653	-0.0001969513888915	-0.0002617000293149
Na	0.3632694816172629	2.9483073190193232	3.1536968793715880	-0.0000740528083739	0.0001223083061886	0.0000862207330292
Na	8.4344847882054310	7.0376375949583316	5.5091496991884368	0.0000863440997478	0.0001847308034827	0.0001428172500551
Na	2.7416242751673012	9.3479045533373064	4.7215558515378033	0.0001680446412507	-0.0000866359554287	0.0000092788740077
8
REF_energy=-445.5941097063060852 charge=-1 Properties=species:S:1:pos:R:3:REF_forces:R:3
Na	2.1446117552158022	2.1446117551220678	3.1436242649299198	0.0000872754118175	0.0000872755216417	0.0000060242275862
Na	5.4625179638055563	2.7953069011940670	2.5749978852997550	-0.0000741582769881	-0.0000386678279849	0.0000220710693977
Na	2.7953069004925317	5.4625179639042534	2.5749978845091808	-0.0000386678873768	-0.0000741582977924	0.0000220712163287
Na	6.2091768145660495	6.2091768151298066	2.0435669727475161	-0.0000117362569294	-0.0000117363464493	-0.0000578490720665
Na	4.5680782877580137	4.5680782882973308	-0.6258673156195539	0.0000376799160852	0.0000376797964041	-0.0000347000663930
Na	1.2501235358184515	3.9140906948779914	-0.0628355981485816	0.0000099905151868	-0.0000186146339014	0.0000581639387807
Na	3.9140906953090386	1.2501235357850182	-0.0628355978759376	-0.0000186144902592	0.0000099907137857	0.0000581639597911
Na	0.5013348188050473	0.5013348174599660	0.4813112428891826	0.0000082310684641	0.0000082310742966	-0.0000739452734249
8
REF_energy=-445.2401577326228335 charge=-1 Properties=species:S:1:pos:R:3:REF_forces:R:3
Na	1.5629163950421272	6.0560622722571296	6.9537767311868262	0.0000999687397102	0.0001009163628769	0.0005880951507156
Na	1.9985363979230382	2.8751383904081016	6.0554787926196729	-0.0002774514394547	0.0004451470559618	0.0001424481809660
Na	3.2812739153271848	-2.9992053480761931	6.3522767863035314	-0.0000914762742746	0.0006413385425016	-0.0002461863188996
Na	2.2695572130790609	-2.5239992435808944	2.8508170738423182	0.0001163120897214	-0.0006423362287286	-0.0001172857352653
Na	3.9892475229008366	0.1315416560373503	4.6652329233531544	-0.0001881484415416	-0.0000791077445680	-0.0004417383933027
Na	0.2260378045422699	-4.0811554050562444	5.1508273523944128	-0.0000194645952733	0.0000899201927551	0.0002774481477090
Na	5.5626938089186604	-2.9896269825010577	3.7558348882369947	0.0001497156708185	-0.0003521217235035	0.0002571968155346
Na	0.7640857335467368	-0.5287131194802599	5.5083027056846783	0.0002105442502943	-0.0002037564572954	-0.0004599778474577
8
REF_energy=-444.9209401190651647 charge=-1 Properties=species:S:1:pos:R:3:REF_forces:R:3
Na	2.7845022143729552	3.8364245796408869	2.3142623758504968	0.0002522966144224	0.0001154550331177	0.0000854127922619
Na	5.0938065828643104	8.4853487063286277	-0.7969592905246502	0.0001913644142805	-0.0000003541599707	-0.0000274936957738
Na	-0.3197220927270834	1.9406067938580629	3.2762412046892062	-0.0000045273185452	0.0000140567359789	0.0000160958201422
Na	-1.9251535480095425	-0.4842836566736001	4.8529889551364835	0.0000367093025329	-0.0001820714885766	0.0000037875011751
Na	2.1759560657385548	7.0047017750714824	-0.1067182244662285	-0.0000888669586490	-0.0000696782233592	-0.0000245992429383
Na	5.5156627474063962	5.6593799365067001	1.3480101022006086	-0.0002182189790217	-0.0000673625745211	0.0001430572710365
Na	-0.2614848439977113	4.8337838093371088	1.1419333126477322	-0.0002452230461101	0.0001899502490363	-0.0001015422895728
Na	8.3013408431588367	7.4619118656525396	0.4074695086971175	0.0000764659710901	0.0000000044282946	-0.0000947181563308
8
REF_energy=-440.5125421352881858 charge=1 Properties=species:S:1:pos:R:3:REF_forces:R:3
Na	1.7510851529538334	5.1728520909415616	0.9623081969482939	-0.0003314690424795	0.0002279771202930	0.0006532089162774
Na	3.7130575691143721	2.7076912875922887	-0.7703210901413676	-0.0000048807076810	-0.0001668612186892	0.0001635720875506
Na	4.2879319524712214	6.2751547493706417	-1.0177582142289108	-0.0000952124347715	0.0001813044291560	-0.0006657311378006
Na	-0.4593085509093723	3.1888983629965182	2.8386466134819517	0.0001676936554814	0.0000031732595077	-0.0004036858138539
Na	2.7102031317619142	1.7045079642298659	2.5380425657147465	0.0001528403866635	-0.0000295502226013	-0.0001532126805897
Na	5.1087370994065973	4.3330852380359053	1.9786913301065141	0.0004346097742159	-0.0001763038940129	0.0002273360254064
Na	5.8006784959616358	0.7689242654375990	1.4632140030329188	-0.0002857080920397	0.0001408943629449	0.0001950204895271
Na	2.4201130845334760	4.7131486601480352	4.4380924461309146	-0.0000378735393891	-0.0001806338365983	-0.0000165078865171
8
REF_energy=-445.1510461027833117 charge=-1 Properties=species:S:1:pos:R:3:REF_forces:R:3
Na	3.6940674335613646	0.2094455422234599	5.1138663118978620	0.0000080290208905	-0.0000136284674542	-0.0000725578308594
Na	0.3545206704547100	0.2097702303719972	3.8526352591177404	-0.0000375151580868	0.0000021008986787	-0.0000141817586852
Na	6.9627292132922110	0.2097413661039723	4.4923674486466050	-0.0000154605748541	0.0000018043738633	0.0000186233608445
Na	4.3168988782457491	0.2097411122464729	1.8455730732702322	0.0000146742155482	0.0000018337234101	0.0000126115695711
Na	1.0349631534705839	0.2098131713646974	0.4728811602019090	0.0000103458410482	0.0000016293243599	0.0000272182201577
Na	4.9562388970494338	0.2097711512155004	8.4532912941461760	-0.0000188658921109	0.0000022859460194	-0.0000167480969623
Na	1.3842452366120221	0.2097451283002481	7.4244416542228189	-0.0000020822260376	0.0000024490608553	0.0000330502487401
Na	8.3361677086145676	0.2098122926041839	7.7739152678985564	0.0000408747736025	0.0000015251402675	0.0000119842871935
8
REF_energy=-444.8660976038308377 charge=-1 Properties=species:S:1:pos:R:3:REF_forces:R:3
Na	15.0473753246438378	-3.1177499758173535	1.7400254701657571	-0.0002370371242304	-0.0001944282223054	-0.0003263936866562
Na	15.6596710918104325	6.7274491782292447	-1.3187334584586610	0.0006676940312290	-0.0002300286936991	0.0001840197797969
Na	15.5626414100844865	-0.3329344703379471	-0.1796004746716597	0.0000240944392691	0.0002149138543528	0.0001312050900637
Na	21.7070848594345911	-3.0019924173623447	0.8277369251813413	0.0002507598120303	0.0001354610506306	0.0003047008323549
Na	15.7899242409284941	3.2370356652192980	-0.8382732104672997	0.0000069803778549	-0.0006346250876012	-0.0004582416247125
Na	18.4546483365637428	-2.6279595157246591	1.0515986691520611	0.0000381101042825	0.0005368212631281	-0.0000648185811657
Na	13.9988186967010027	1.2236556522619129	-3.0018671537209491	-0.0003405253913575	0.0001311690087891	0.0001336089946248
Na	13.9574851514204106	4.7013023263132094	-3.5042945020876890	-0.0004100762490779	0.0000407168267050	0.0000959191956941
8
REF_energy=-444.8990176197128790 charge=-1 Properties=species:S:1:pos:R:3:REF_forces:R:3
Na	5.7762617562382168	3.1217603316689573	2.7263443555665097	0.0001426727606338	-0.0000062247492473	0.0002691496039680
Na	2.6136568616651950	2.0148660462021892	1.7149214547292959	0.0000666738200166	0.0001300979566347	-0.0002904191901409
Na	-0.7058832446524768	0.8971482538467889	0.6031968796849526	0.0000793252767063	0.0002600412973257	-0.0000644542198065
Na	9.9800160250487622	8.2053326673865623	1.0873203860972427	0.0000750383156794	-0.0002494349578676	-0.0000662437328588
Na	4.2096719129965106	4.8816819246352514	0.1959459620016003	-0.0003875896270385	0.0000783298688851	0.0000142431272807
Na	1.0535824142124908	3.7750194968056796	-0.8207845840599628	-0.0000531295460115	-0.0000592648428863	-0.0000412717642040
Na	-3.2569742994792676	-1.1840710439618722	0.8310782556366874	0.0000697856453621	-0.0002219437084231	0.0000810416992991
Na	7.5084532505312360	6.0313993942909230	1.3295961327918318	0.0000072233546518	0.0000683991355788	0.0000979544764624
8
REF_energy=-439.9416048027727584 charge=1 Properties=species:S:1:pos:R:3:REF_forces:R:3
Na	0.1855998514481441	3.0420424054247679	1.1799493605900180	-0.0001576419128695	0.0000228427005019	-0.0000542729053786
Na	2.4169752793453818	4.0685352726675408	3.6010181894315383	0.0000803958004350	-0.0002417834243934	0.0000916597432186
Na	6.0399558919360210	3.2745844674471178	-2.2485750472614572	0.0002422964535750	-0.0003290175812163	0.0000588396305934
Na	4.6367593917260406	6.1592452659426540	-2.6044613696730003	-0.0000353790026793	0.0002721155027026	-0.0002224422553403
Na	3.4386341026080651	4.1249322243944677	0.1119096381697934	-0.0000879193697748	0.0001583383897431	-0.0003214519543923
Na	1.8930408444993667	4.1588407037378587	6.9943997774746149	0.0003196635228696	-0.0000707763241535	0.0000810176714596
Na	-0.7569848936420173	2.9868764534832053	4.5806715503464988	-0.0002595330864383	-0.0000114679301114	0.0000498751267271
Na	4.8997128451998071	5.1275981184270512	5.7928439942754508	-0.0001018824051177	0.0001997486669270	0.0003167749431126
8
REF_energy=-440.3809458930070377 charge=1 Properties=species:S:1:pos:R:3:REF_forces:R:3
Na	2.2934098101369993	2.5187444244688035	2.5187444244110515	-0.0000787651928149	0.0000008244308119	0.0000008246393223
Na	3.6390535254477796	5.1695797328253326	5.1695797330751398	0.0000377363067147	-0.0002037499919995	-0.0002037501735692
Na	5.7024800413946908	3.1064863998329724	3.1064863999387979	-0.0001267959024376	0.0002405012856992	0.0002405010802315
Na	3.0367231221640330	5.7717248520439188	1.7643184901972655	0.0000908411233754	-0.0001488532452627	0.0001424945913416
Na	6.2894171367714531	6.5161163457893947	2.5188934915340808	-0.0000590255005232	0.0000374544301119	0.0000118955580154
Na	3.0367231214143682	1.7643184905319167	5.7717248524202818	0.0000908415284623	0.0001424947085881	-0.0001488532216688
Na	6.2894171372936301	2.5188934911157630	6.5161163453565498	-0.0000590257964737	0.0000118957028671	0.0000374543612282
Na	7.0444270777434346	5.7712169327949105	5.7712169324697626	0.0001041934336970	-0.0000805673208159	-0.0000805668349010
8
REF_energy=-444.9539567436731318 charge=-1 Properties=species:S:1:pos:R:3:REF_forces:R:3
Na	8.0630126626053595	3.2728092737468142	-1.1240939103954946	-0.0000130635630985	0.0000671978288382	0.0001174619688162
Na	6.9389114293666276	5.8832587722387641	0.9846644168312113	-0.0000160557455407	-0.0000331480730413	-0.0000884072863304
Na	5.6026569981543695	1.3054847190607950	-2.4251823252500406	-0.0000574635941566	-0.0000094526962651	0.0000242391995019
Na	2.2086503906249959	1.9754737708129368	-1.5984949663026380	-0.0000400671379906	-0.0000739179653990	-0.0000108632332589
Na	4.4790622951252921	4.0049797518300556	-0.2310779765977481	0.0000507348275429	0.0001297435483153	0.0000795924050335
Na	3.6723226931107615	6.8259944124575203	1.9929343910067601	0.0000718060895734	-0.0000132268297305	-0.0001449325687434
Na	3.4378907106488086	9.6120971546182830	4.1169719845929995	0.0000037513740130	0.0000819948221312	0.0000322100456897
Na	3.1344674399783479	12.2547372619624486	6.1301151425181359	0.0000003577496572	-0.0001491906348489	-0.0000093005307086
8
REF_energy=-439.7706523820600637 charge=1 Properties=species:S:1:pos:R:3:REF_forces:R:3
Na	4.6373443582939888	-3.0588893541412219	2.9416550592582791	0.0001058231637378	0.0003248399620078	0.0001859614896598
Na	3.5423470071627965	6.9278555760759373	1.7582231462295941	0.0001056855504335	0.0000741191463416	0.0000212875088147
Na	2.7564186716546297	3.5603733162160567	3.8115396441054283	-0.0003939977794236	-0.0004773323121216	-0.0002914266040389
Na	4.1804957264144775	10.4230871985366811	2.7820966454025626	0.0002490795507364	-0.0005087179948296	-0.0000955609133195
Na	3.7611164394976768	3.5930318566634849	0.7733483515246680	0.0002703007180075	-0.0001508798269343	-0.0000226575874987
Na	1.5416994991685546	-2.9918808808053803	2.1422984765416073	-0.0001170083281794	0.0000275336822415	0.0001695498805919
Na	3.0692315138500406	0.2270950836340723	2.8257229751964128	0.0001232320870252	0.0000465000291808	-0.0000772992720000
Na	2.4235031263237841	9.9029667704780877	0.1575962177159233	-0.0003431149623373	0.0006639373141138	0.0001101454977906
8
REF_energy=-445.5941097063060852 charge=-1 Properties=species:S:1:pos:R:3:REF_forces:R:3
Na	2.1446117552158022	2.1446117551220678	3.1436242649299198	0.0000872754118175	0.0000872755216417	0.0000060242275862
Na	5.4625179638055563	2.7953069011940670	2.5749978852997550	-0.0000741582769881	-0.0000386678279849	0.0000220710693977
Na	2.7953069004925317	5.4625179639042534	2.5749978845091808	-0.0000386678873768	-0.0000741582977924	0.0000220712163287
Na	6.2091768145660495	6.2091768151298066	2.0435669727475161	-0.0000117362569294	-0.0000117363464493	-0.0000578490720665
Na	4.5680782877580137	4.5680782882973308	-0.6258673156195539	0.0000376799160852	0.0000376797964041	-0.0000347000663930
Na	1.2501235358184515	3.9140906948779914	-0.0628355981485816	0.0000099905151868	-0.0000186146339014	0.0000581639387807
Na	3.9140906953090386	1.2501235357850182	-0.0628355978759376	-0.0000186144902592	0.0000099907137857	0.0000581639597911
Na	0.5013348188050473	0.5013348174599660	0.4813112428891826	0.0000082310684641	0.0000082310742966	-0.0000739452734249
8
REF_energy=-440.6070340000792385 charge=1 Properties=species:S:1:pos:R:3:REF_forces:R:3
Na	1.8425290199293014	6.5072657708421442	0.5908215539648105	0.0000158330205048	-0.0000106428290606	-0.0000126268489002
Na	6.6075236122615753	2.9865781617982159	0.0975876789024436	0.0000057562488400	-0.0000132491716466	0.0000060246370078
Na	3.3327123088477109	3.8092241704633714	-1.1954964818016853	-0.0000169063241533	0.0000329333249802	0.0000135136190450
Na	1.5441396830073628	5.3833867250218175	4.0953295585315859	-0.0000215052412855	-0.0000079820248076	-0.0000221489529444
Na	3.8131901450989845	0.9384470793528547	1.1359262432378903	-0.0000120116620664	-0.0000216688218187	0.0000121224118115
Na	0.9419116770133175	3.1024000212444558	1.4087665217612999	0.0000194634259747	0.0000261440375662	0.0000087112295388
Na	4.2007547575083422	4.2963674979622208	2.2072070165893680	-0.0000442146340348	-0.0000119523046685	0.0000156471593081
Na	2.6174083812129028	1.8599635178213836	4.3611987324695152	0.0000535851662206	0.0000064177894557	-0.0000212432548667
8
REF_energy=-444.9538408427252989 charge=-1 Properties=species:S:1:pos:R:3:REF_forces:R:3
Na	-2.8669234645563511	-0.8297149634147922	5.3873433320455586	-0.0001852847095246	0.0006560945618663	0.0003439620239485
Na	-1.5836430853474415	1.6433880125765468	7.3238887387546603	0.0001011755320423	0.0000335314317032	-0.0002000795286214
Na	4.0247121408118725	1.2391531475221882	4.0562467052341660	-0.0003298478281286	0.0000707611672614	0.0000347856175932
Na	1.7559574744585600	2.5079838853422598	6.5338936138292532	0.0003616550425470	-0.0002240850407101	-0.0000222795681748
Na	-0.9179204800007008	-2.3209737821198568	2.8218553878138732	-0.0002559411409851	-0.0005841510396460	-0.0003075156437018
Na	0.5746145742289349	0.0874634319394697	4.5973592205118825	-0.0000093239217503	-0.0003169965823709	0.0001655676159508
Na	7.3348978620501057	2.1786905197555715	3.3201470978392820	0.0002269057646361	-0.0000158135576970	-0.0004243902800110
Na	10.4695401144050244	3.0305205145453331	2.5591622671023275	0.0000906612611633	0.0003806590595932	0.0004099497630166
8
REF_energy=-440.6070340000792385 charge=1 Properties=species:S:1:pos:R:3:REF_forces:R:3
Na	1.8425290199293014	6.5072657708421442	0.5908215539648105	0.0000158330205048	-0.0000106428290606	-0.0000126268489002
Na	6.6075236122615753	2.9865781617982159	0.0975876789024436	0.0000057562488400	-0.0000132491716466	0.0000060246370078
Na	3.3327123088477109	3.8092241704633714	-1.1954964818016853	-0.0000169063241533	0.0000329333249802	0.0000135136190450
Na	1.5441396830073628	5.3833867250218175	4.0953295585315859	-0.0000215052412855	-0.0000079820248076	-0.0000221489529444
Na	3.8131901450989845	0.9384470793528547	1.1359262432378903	-0.0000120116620664	-0.0000216688218187	0.0000121224118115
Na	0.9419116770133175	3.1024000212444558	1.4087665217612999	0.0000194634259747	0.0000261440375662	0.0000087112295388
Na	4.2007547575083422	4.2963674979622208	2.2072070165893680	-0.0000442146340348	-0.0000119523046685	0.0000156471593081
Na	2.6174083812129028	1.8599635178213836	4.3611987324695152	0.0000535851662206	0.0000064177894557	-0.0000212432548667
8
REF_energy=-444.6180281804350329 charge=-1 Properties=species:S:1:pos:R:3:REF_forces:R:3
Na	6.9456327371886584	-1.7963666979305684	7.1746008352404838	-0.0000889520677389	0.0000019074828028	-0.0000305662219837
Na	-2.3121484564422046	0.7368314154532393	3.8128023109189400	-0.0000547712046531	-0.0000016691549800	0.0001057507013967
Na	3.8637811222718956	-0.9666133495653338	6.0725348777785229	0.0000557190060669	-0.0000878435545783	0.0000405666432865
Na	10.1237724108919469	-2.6265183084992350	8.2997692660402560	0.0000488259181838	-0.0000326492217653	-0.0000280339390021
Na	13.1095097731491190	-3.4202997178607286	9.3731040580355067	0.0000071287789349	0.0000873926938598	-0.0000013251514920
Na	0.7519069765051943	-0.1171071330526209	4.9420571701424159	-0.0000024965874647	-0.0000325143664819	-0.0000088784196305
Na	-5.4582778676078094	1.6275280077831547	2.6505111298842987	-0.0000286926213828	0.0000354906455317	-0.0000243201766091
Na	-8.4143261280212567	2.4773700558309786	1.5402132333268890	0.0000632387780539	0.0000298854756111	-0.0000531934359659
8
REF_energy=-440.5529998722435607 charge=1 Properties=species:S:1:pos:R:3:REF_forces:R:3
Na	3.3736377820116115	4.3881106032492987	5.4595566825286683	-0.0000049738373068	0.0000225000787121	0.0000047678893645
Na	-0.2286735996031941	2.3232956741325044	-0.0528293564362536	-0.0000019477810691	0.0000109616727925	-0.0000216173690815
Na	5.7597063007596043	4.4161721186713132	-0.4308985140000677	-0.0000127356788671	-0.0000066641394536	0.0000035552878030
Na	4.0387042155063284	6.0395491954843479	2.3116037650128778	0.0000032315707875	0.0000003595260877	-0.0000056478495242
Na	3.3422229465639290	1.7449648245717742	-0.0719746261999269	0.0000044619422562	-0.0000036786717969	-0.0000089817450548
Na	5.1988119548325358	2.8056882960950849	2.7646438164499014	0.0000275420372391	-0.0000098817629221	0.0000029456783375
Na	2.1830248606290255	4.9790608043182827	-0.5283931439964276	-0.0000122092990223	-0.0000026482732700	0.0000258504071070
Na	1.5650637418099220	3.3566278360960866	2.7077102731960925	-0.0000033689540175	-0.0000109484301498	-0.0000008722989515
8
REF_energy=-439.9416048027727584 charge=1 Properties=species:S:1:pos:R:3:REF_forces:R:3
Na	0.1855998514481441	3.0420424054247679	1.1799493605900180	-0.0001576419128695	0.0000228427005019	-0.0000542729053786
Na	2.4169752793453818	4.0685352726675408	3.6010181894315383	0.0000803958004350	-0.0002417834243934	0.0000916597432186
Na	6.0399558919360210	3.2745844674471178	-2.2485750472614572	0.0002422964535750	-0.0003290175812163	0.0000588396305934
Na	4.6367593917260406	6.1592452659426540	-2.6044613696730003	-0.0000353790026793	0.0002721155027026	-0.0002224422553403
Na	3.4386341026080651	4.1249322243944677	0.1119096381697934	-0.0000879193697748	0.0001583383897431	-0.0003214519543923
Na	1.8930408444993667	4.1588407037378587	6.9943997774746149	0.0003196635228696	-0.0000707763241535	0.0000810176714596
Na	-0.7569848936420173	2.9868764534832053	4.5806715503464988	-0.0002595330864383	-0.0000114679301114	0.0000498751267271
Na	4.8997128451998071	5.1275981184270512	5.7928439942754508	-0.0001018824051177	0.0001997486669270	0.0003167749431126
8
REF_energy=-445.2401577326228335 charge=-1 Properties=species:S:1:pos:R:3:REF_forces:R:3
Na	1.5629163950421272	6.0560622722571296	6.9537767311868262	0.0000999687397102	0.0001009163628769	0.0005880951507156
Na	1.9985363979230382	2.8751383904081016	6.0554787926196729	-0.0002774514394547	0.0004451470559618	0.0001424481809660
Na	3.2812739153271848	-2.9992053480761931	6.3522767863035314	-0.0000914762742746	0.0006413385425016	-0.0002461863188996
Na	2.2695572130790609	-2.5239992435808944	2.8508170738423182	0.0001163120897214	-0.0006423362287286	-0.0001172857352653
Na	3.9892475229008366	0.1315416560373503	4.6652329233531544	-0.0001881484415416	-0.0000791077445680	-0.0004417383933027
Na	0.2260378045422699	-4.0811554050562444	5.1508273523944128	-0.0000194645952733	0.0000899201927551	0.0002774481477090
Na	5.5626938089186604	-2.9896269825010577	3.7558348882369947	0.0001497156708185	-0.0003521217235035	0.0002571968155346
Na	0.7640857335467368	-0.5287131194802599	5.5083027056846783	0.0002105442502943	-0.0002037564572954	-0.0004599778474577
8
REF_energy=-444.8990176197128790 charge=-1 Properties=species:S:1:pos:R:3:REF_forces:R:3
Na	5.7762617562382168	3.1217603316689573	2.7263443555665097	0.0001426727606338	-0.0000062247492473	0.0002691496039680
Na	2.6136568616651950	2.0148660462021892	1.7149214547292959	0.0000666738200166	0.0001300979566347	-0.0002904191901409
Na	-0.7058832446524768	0.8971482538467889	0.6031968796849526	0.0000793252767063	0.0002600412973257	-0.0000644542198065
Na	9.9800160250487622	8.2053326673865623	1.0873203860972427	0.0000750383156794	-0.0002494349578676	-0.0000662437328588
Na	4.2096719129965106	4.8816819246352514	0.1959459620016003	-0.0003875896270385	0.0000783298688851	0.0000142431272807
Na	1.0535824142124908	3.7750194968056796	-0.8207845840599628	-0.0000531295460115	-0.0000592648428863	-0.0000412717642040
Na	-3.2569742994792676	-1.1840710439618722	0.8310782556366874	0.0000697856453621	-0.0002219437084231	0.0000810416992991
Na	7.5084532505312360	6.0313993942909230	1.3295961327918318	0.0000072233546518	0.0000683991355788	0.0000979544764624
8
REF_energy=-445.0282299647089985 charge=-1 Properties=species:S:1:pos:R:3:REF_forces:R:3
Na	4.7746080625018310	2.9196613321778462	4.6245179754053725	0.0003437579230575	-0.0002168608168542	0.0001760994117369
Na	1.6393751517517494	6.2202867181514074	0.7336875262163046	-0.0004395783384067	-0.0002246085074798	-0.0006467059486647
Na	5.5206105178443776	-1.9905302493653176	-3.3017391238592166	-0.0000746011010461	0.0004519369901531	-0.0003836794449372
Na	2.5435400571049356	3.7109093163651230	-1.5860959815953823	0.0003875779229944	0.0000880431679565	0.0002004818016216
Na	3.7605722246284428	3.1014706359892781	1.3829045300724530	0.0001055749598339	-0.0004521597888684	0.0002042943890819
Na	4.4935839261829571	0.6081366043607893	-1.4125707971351540	-0.0001356698234580	-0.0005278856494572	0.0000449070169699
Na	2.8490076078426942	5.6966818850090464	3.9161705142339023	0.0001384139729880	0.0000141350399563	0.0005695476226251
Na	0.9482563436822496	8.5535513380016823	3.5940697029607565	-0.0003254755159631	0.0008673995645937	-0.0001649448484336
8
REF_energy=-438.9015970452933288 charge=1 Properties=species:S:1:pos:R:3:REF_forces:R:3
Na	16.5494756051711711	-0.0000123798710814	-0.0000123798684269	-0.0000104023319255	-0.0000001803701988	-0.0000001803704003
Na	19.9433058905328302	-0.0000248023855232	-0.0000248023803579	-0.0000014797611231	-0.0000008623724587	-0.0000008623718987
Na	13.1777922790560087	0.0000234386293450	0.0000234386262809	0.0000019211362667	0.0000010643611653	0.0000010643608186
Na	23.3149639767020389	0.0000266595997918	0.0000266595904943	0.0000032180465250	0.0000012989655186	0.0000012989647140
Na	26.7443045595902404	-0.0000027521829220	-0.0000027521687793	0.0000079315614485	-0.0000009811249230	-0.0000009811240241
Na	9.7484313776250033	-0.0000101991672759	-0.0000101991609758	-0.0000088165495009	-0.0000011165761780	-0.0000011165757518
Na	6.4724444769989855	0.0000024227833975	0.0000024227771510	-0.0000000848436739	0.0000004387765715	0.0000004387764324
Na	30.0203020560350673	-0.0000023874057318	-0.0000023874153862	0.0000077127419833	0.0000003383405030	0.0000003383401101
8
REF_energy=-445.0980163598940180 charge=-1 Properties=species:S:1:pos:R:3:REF_forces:R:3
Na	4.8137582550312832	0.3552086353826577	6.9821789094161613	0.0002014819163043	0.0001307505072988	-0.0001246742158377
Na	2.4424680900176474	-1.3729081919171182	4.9999444448785644	-0.0001524135887182	-0.0001087241554864	0.0002292316714552
Na	7.7253972189018620	1.8300210924541707	5.6743093550987034	-0.0001131760568286	-0.0000426139185303	-0.0001831966991986
Na	-1.1478415067741019	-0.6089197587197662	4.9166901720070371	0.0001698835582533	-0.0001402938966257	-0.0001041477135264
Na	-0.1127204336923573	-3.6707558293184239	3.9917202515096939	0.0000050209920299	0.0000896115859554	-0.0001358323391611
Na	4.7488523467388921	1.6820692766878493	3.7934251492443378	0.0000690234296344	-0.0001072978715663	0.0001991653635605
Na	1.5276103137647432	1.8928121669916422	5.2348801701169068	-0.0002062741498280	0.0001196718891632	0.0002307774047934
Na	-1.9440662893841385	2.5271293635001628	5.8306760354603488	0.0000264538991530	0.0000588958597913	-0.0001113234720853
8
REF_energy=-445.0980163598940180 charge=-1 Properties=species:S:1:pos:R:3:REF_forces:R:3
Na	4.8137582550312832	0.3552086353826577	6.9821789094161613	0.0002014819163043	0.0001307505072988	-0.0001246742158377
Na	2.4424680900176474	-1.3729081919171182	4.9999444448785644	-0.0001524135887182	-0.0001087241554864	0.0002292316714552
Na	7.7253972189018620	1.8300210924541707	5.6743093550987034	-0.0001131760568286	-0.0000426139185303	-0.0001831966991986
Na	-1.1478415067741019	-0.6089197587197662	4.9166901720070371	0.0001698835582533	-0.0001402938966257	-0.0001041477135264
Na	-0.1127204336923573	-3.6707558293184239	3.9917202515096939	0.0000050209920299	0.0000896115859554	-0.0001358323391611
Na	4.7488523467388921	1.6820692766878493	3.7934251492443378	0.0000690234296344	-0.0001072978715663	0.0001991653635605
Na	1.5276103137647432	1.8928121669916422	5.2348801701169068	-0.0002062741498280	0.0001196718891632	0.0002307774047934
Na	-1.9440662893841385	2.5271293635001628	5.8306760354603488	0.0000264538991530	0.0000588958597913	-0.0001113234720853
8
REF_energy=-444.8660976038308377 charge=-1 Properties=species:S:1:pos:R:3:REF_forces:R:3
Na	15.0473753246438378	-3.1177499758173535	1.7400254701657571	-0.0002370371242304	-0.0001944282223054	-0.0003263936866562
Na	15.6596710918104325	6.7274491782292447	-1.3187334584586610	0.0006676940312290	-0.0002300286936991	0.0001840197797969
Na	15.5626414100844865	-0.3329344703379471	-0.1796004746716597	0.0000240944392691	0.0002149138543528	0.0001312050900637
Na	21.7070848594345911	-3.0019924173623447	0.8277369251813413	0.0002507598120303	0.0001354610506306	0.0003047008323549
Na	15.7899242409284941	3.2370356652192980	-0.8382732104672997	0.0000069803778549	-0.0006346250876012	-0.0004582416247125