8
REF_energy=-445.1718321210485669 charge=-1 Properties=species:S:1:pos:R:3:REF_forces:R:3
Na	6.2014516304183038	3.9580290774175118	0.0617635690867177	0.0000214422665883	0.0000397049503943	0.0000438289379899
Na	0.3894960502780610	3.3715395881428627	2.0800457526693674	0.0000459856148487	0.0000400657589951	0.0000397390802922
Na	3.1491336862593773	2.0427532280000631	0.3676954854943161	-0.0000655417493883	0.0000488503512463	-0.0000366409477725
Na	3.4097392877056629	8.4661660877101319	3.2807137702734988	0.0001195344199572	0.0001030680224909	0.0000109476363390
Na	6.0406890938116105	0.7676116785395819	-1.3796459641078904	0.0000103516580521	-0.0000050714255504	-0.0000118695366397
Na	3.4426935202100313	5.2922656611607017	1.7760529031186183	-0.0000367386336976	-0.0001325957905200	-0.0000626135431153
Na	0.5451509460099709	6.5622859346663001	3.5190148482238457	-0.0001212840942425	-0.0000472668740875	0.0000174585289390
Na	3.1696217543420802	-1.1282919344558062	-1.1396879836475773	0.0000262505178821	-0.0000467549929686	-0.0000008501560327
8
REF_energy=-439.9060365951837070 charge=1 Properties=species:S:1:pos:R:3:REF_forces:R:3
Na	16.8070607478959566	-0.0116538218206771	-0.0116538218215297	0.0000391076035025	-0.0000246316888922	-0.0000246316889664
Na	18.6033497134829240	2.0244742255317245	2.0244742255263319	-0.0000124619640438	0.0000076096786405	0.0000076096787862
Na	20.5767276699353907	-0.0687613733684016	-0.0687613733660149	0.0000064632937842	0.0000228037635472	0.0000228037635626
Na	15.0971110383507821	2.0693208025307595	2.0693208025330518	0.0000685045277514	0.0000075211934707	0.0000075211934093
Na	22.2077845271036516	2.1659897188671198	2.1659897188692478	0.0000182360291608	-0.0000221170728217	-0.0000221170728134
Na	24.1812652695308472	0.0728684085049207	0.0728684085057458	-0.0000239344383928	-0.0000137180102803	-0.0000137180102075
Na	25.9776059643546233	2.1089483764579229	2.1089483764582528	-0.0000240087577327	0.0000061902972080	0.0000061902971176
Na	27.6875561823216465	0.0279738195466546	0.0279738195449869	-0.0000719062940295	0.0000163418391279	0.0000163418391116
8
REF_energy=-445.1245805621248905 charge=-1 Properties=species:S:1:pos:R:3:REF_forces:R:3
Na	3.5924383732009466	7.0578559000549861	4.8059114484202574	-0.0000224690902391	-0.0000221979034312	-0.0001435774507786
Na	2.0148199737558397	5.8529523601494606	1.6709836370425648	0.0000972112597380	0.0000243107194092	0.0000315358906175
Na	7.8368216222840701	2.9244756116365007	3.7496365278220378	0.0002739843537728	-0.0000381932658364	0.0000632828383722
Na	3.6161241350980644	3.1389695989772104	-0.2059045271068035	-0.0001675719053793	-0.0002308074658997	-0.0002968114555073
Na	4.9541657720438677	4.3942196702162626	2.7191229451183250	-0.0000383831830231	-0.0001142226676650	0.0002571868259850
Na	6.5110386234145139	5.4926245377381262	5.7309080221460276	-0.0000781147666295	0.0001684478114369	0.0000416133417457
Na	1.9256062904484466	2.1055154667529492	-3.1970130796270810	0.0000456967513421	0.0001389686504884	0.0000205555497980
Na	0.5267552612859884	4.6354521579184365	-1.3655101996627945	-0.0001103534195818	0.0000736941214979	0.0000262144597675
8
REF_energy=-444.8990176197128790 charge=-1 Properties=species:S:1:pos:R:3:REF_forces:R:3
Na	5.7762617562382168	3.1217603316689573	2.7263443555665097	0.0001426727606338	-0.0000062247492473	0.0002691496039680
Na	2.6136568616651950	2.0148660462021892	1.7149214547292959	0.0000666738200166	0.0001300979566347	-0.0002904191901409
Na	-0.7058832446524768	0.8971482538467889	0.6031968796849526	0.0000793252767063	0.0002600412973257	-0.0000644542198065
Na	9.9800160250487622	8.2053326673865623	1.0873203860972427	0.0000750383156794	-0.0002494349578676	-0.0000662437328588
Na	4.2096719129965106	4.8816819246352514	0.1959459620016003	-0.0003875896270385	0.0000783298688851	0.0000142431272807
Na	1.0535824142124908	3.7750194968056796	-0.8207845840599628	-0.0000531295460115	-0.0000592648428863	-0.0000412717642040
Na	-3.2569742994792676	-1.1840710439618722	0.8310782556366874	0.0000697856453621	-0.0002219437084231	0.0000810416992991
Na	7.5084532505312360	6.0313993942909230	1.3295961327918318	0.0000072233546518	0.0000683991355788	0.0000979544764624
8
REF_energy=-445.0980163598940180 charge=-1 Properties=species:S:1:pos:R:3:REF_forces:R:3
Na	4.8137582550312832	0.3552086353826577	6.9821789094161613	0.0002014819163043	0.0001307505072988	-0.0001246742158377
Na	2.4424680900176474	-1.3729081919171182	4.9999444448785644	-0.0001524135887182	-0.0001087241554864	0.0002292316714552
Na	7.7253972189018620	1.8300210924541707	5.6743093550987034	-0.0001131760568286	-0.0000426139185303	-0.0001831966991986
Na	-1.1478415067741019	-0.6089197587197662	4.9166901720070371	0.0001698835582533	-0.0001402938966257	-0.0001041477135264
Na	-0.1127204336923573	-3.6707558293184239	3.9917202515096939	0.0000050209920299	0.0000896115859554	-0.0001358323391611
Na	4.7488523467388921	1.6820692766878493	3.7934251492443378	0.0000690234296344	-0.0001072978715663	0.0001991653635605
Na	1.5276103137647432	1.8928121669916422	5.2348801701169068	-0.0002062741498280	0.0001196718891632	0.0002307774047934
Na	-1.9440662893841385	2.5271293635001628	5.8306760354603488	0.0000264538991530	0.0000588958597913	-0.0001113234720853
8
REF_energy=-445.6070200427045620 charge=-1 Properties=species:S:1:pos:R:3:REF_forces:R:3
Na	7.2979545752867789	3.5803155911481639	1.9109736178056811	0.0000515804067852	-0.0000045805687273	-0.0000515524084921
Na	1.1486029189425071	3.3677017759055543	-2.3560138335170988	-0.0000531116135857	0.0000150780386642	0.0000833936820925
Na	1.6066650018625572	1.6970557338439016	0.6727840280566151	0.0000736898910298	-0.0000444708240428	0.0000061159810719
Na	4.4865579149672481	5.6171925563735083	2.2559142040845974	-0.0000123623360295	-0.0000212841077801	0.0000265522593663
Na	4.3835578295062207	1.7909726239691286	2.5939640531825656	-0.0000843150159014	0.0000490195087089	0.0000070301824734
Na	4.4641073532896280	3.4365298525712382	-0.5676643886933717	0.0000433886002727	-0.0000082947471387	0.0000399189398854
Na	1.6609255379962216	3.8709200805359427	3.4599591015727311	-0.0000392262933906	-0.0000059418277412	-0.0001246824324145
Na	1.7128891314467647	5.5175821501663274	0.3324821970998154	0.0000203563608195	0.0000204745280569	0.0000132237960171
8
REF_energy=-445.1718321210485669 charge=-1 Properties=species:S:1:pos:R:3:REF_forces:R:3
Na	6.2014516304183038	3.9580290774175118	0.0617635690867177	0.0000214422665883	0.0000397049503943	0.0000438289379899
Na	0.3894960502780610	3.3715395881428627	2.0800457526693674	0.0000459856148487	0.0000400657589951	0.0000397390802922
Na	3.1491336862593773	2.0427532280000631	0.3676954854943161	-0.0000655417493883	0.0000488503512463	-0.0000366409477725
Na	3.4097392877056629	8.4661660877101319	3.2807137702734988	0.0001195344199572	0.0001030680224909	0.0000109476363390
Na	6.0406890938116105	0.7676116785395819	-1.3796459641078904	0.0000103516580521	-0.0000050714255504	-0.0000118695366397
Na	3.4426935202100313	5.2922656611607017	1.7760529031186183	-0.0000367386336976	-0.0001325957905200	-0.0000626135431153
Na	0.5451509460099709	6.5622859346663001	3.5190148482238457	-0.0001212840942425	-0.0000472668740875	0.0000174585289390
Na	3.1696217543420802	-1.1282919344558062	-1.1396879836475773	0.0000262505178821	-0.0000467549929686	-0.0000008501560327
8
REF_energy=-444.6455439919799915 charge=-1 Properties=species:S:1:pos:R:3:REF_forces:R:3
Na	0.8117969285147204	3.2056709132474834	-4.4256088555985231	-0.0003269288743797	-0.0001319242274319	-0.0003588633504887
Na	3.2528615067355950	5.1503135044703852	11.7692191504550596	-0.0000275766036286	-0.0001052778568454	0.0001306035468425
Na	2.6857216849293204	3.3700325654174499	-1.6462800445955768	-0.0003526646294215	0.0000823189853862	-0.0001289337730975
Na	6.9365742097998915	2.3826128262846780	-6.9360686869478823	0.0002186875442039	-0.0000555334495821	0.0002214755324390
Na	3.3321348588328266	4.1731625360285047	5.0864751679937230	0.0002712099978727	-0.0000543474892633	0.0001766380037556
Na	4.2391694166694665	2.8213965668961274	-5.1725223825545923	0.0001749904025586	-0.0000007398953864	0.0000584186338166
Na	3.2945058632634718	3.7288447529053252	1.7283826424107758	-0.0001195272716573	0.0002108967105492	-0.0001043265513521
Na	3.3030950279455498	4.6656340093475022	8.5204073357669774	0.0001618094344519	0.0000546072225738	0.0000049879580846
8
REF_energy=-444.9539567436731318 charge=-1 Properties=species:S:1:pos:R:3:REF_forces:R:3
Na	8.0630126626053595	3.2728092737468142	-1.1240939103954946	-0.0000130635630985	0.0000671978288382	0.0001174619688162
Na	6.9389114293666276	5.8832587722387641	0.9846644168312113	-0.0000160557455407	-0.0000331480730413	-0.0000884072863304
Na	5.6026569981543695	1.3054847190607950	-2.4251823252500406	-0.0000574635941566	-0.0000094526962651	0.0000242391995019
Na	2.2086503906249959	1.9754737708129368	-1.5984949663026380	-0.0000400671379906	-0.0000739179653990	-0.0000108632332589
Na	4.4790622951252921	4.0049797518300556	-0.2310779765977481	0.0000507348275429	0.0001297435483153	0.0000795924050335
Na	3.6723226931107615	6.8259944124575203	1.9929343910067601	0.0000718060895734	-0.0000132268297305	-0.0001449325687434
Na	3.4378907106488086	9.6120971546182830	4.1169719845929995	0.0000037513740130	0.0000819948221312	0.0000322100456897
Na	3.1344674399783479	12.2547372619624486	6.1301151425181359	0.0000003577496572	-0.0001491906348489	-0.0000093005307086
8
REF_energy=-445.1587532376281047 charge=-1 Properties=species:S:1:pos:R:3:REF_forces:R:3
Na	6.9771526767531045	2.2433818965288195	5.5491735030608567	0.0000389248390189	0.0000009332392158	-0.0000257545844867
Na	1.5627719900036567	7.3990990500742218	-0.3804586210750330	0.0000274487601220	-0.0000098648902010	-0.0000212567141601
Na	2.6429976002579818	1.5575479257492808	-0.0024095231546833	-0.0000280787160160	0.0000048974103714	-0.0000596798424789
Na	0.4049341070831498	1.2258812703647202	-2.8639154623486456	-0.0000044086864628	-0.0000124782527822	0.0000290830173779
Na	5.5529616456089057	5.0869285564423485	4.2107870812903245	-0.0000412907217722	-0.0000131850874757	0.0000233181746672
Na	4.7808944684104020	1.9228718562968787	2.7394479044856004	-0.0000041707644169	0.0000349092445985	0.0000144739423643
Na	3.2951345737412798	4.8271324865378045	1.3461471152624855	-0.0000205760805341	-0.0000103347192878	0.0000318953738773
Na	0.9654012093848778	4.3439441719020389	-1.6391665542900393	0.0000321513700610	0.0000051230555610	0.0000079206328390
8
REF_energy=-444.9638191649535770 charge=-1 Properties=species:S:1:pos:R:3:REF_forces:R:3
Na	9.9730550702589174	4.7804518272346908	3.9497160682244581	-0.0001953110251963	-0.0000668232149010	0.0002361334156910
Na	1.4220985409553240	4.4130509727947844	-0.2983422590038259	0.0001173761426897	-0.0000256048857220	-0.0002556665321292
Na	-1.5319338425851290	-1.3886159381752383	-0.4889574670099838	0.0000588545317470	0.0003285126851702	0.0000049930313329
Na	4.3819375429541365	6.0010148035762754	0.8521619795304867	0.0001346587517031	0.0000355879172406	0.0000124482769374
Na	6.9622663245179863	4.2385223810698278	2.5705264759989439	0.0000669888026019	0.0002097725712075	-0.0004307649814099
Na	3.8807560718999605	2.5822429971184824	1.3795181831162810	0.0004102281396825	-0.0002308517224339	0.0002133334966064
Na	0.8004720460424453	0.9319338816096774	0.1736668052108929	-0.0002986181308238	-0.0000428795651570	0.0000741925189327
Na	1.9354958705947687	7.8100013496975320	-0.8225384359149494	-0.0002941772124040	-0.0002077137854044	0.0001453307740387
8
REF_energy=-444.9538408427252989 charge=-1 Properties=species:S:1:pos:R:3:REF_forces:R:3
Na	-2.8669234645563511	-0.8297149634147922	5.3873433320455586	-0.0001852847095246	0.0006560945618663	0.0003439620239485
Na	-1.5836430853474415	1.6433880125765468	7.3238887387546603	0.0001011755320423	0.0000335314317032	-0.0002000795286214
Na	4.0247121408118725	1.2391531475221882	4.0562467052341660	-0.0003298478281286	0.0000707611672614	0.0000347856175932
Na	1.7559574744585600	2.5079838853422598	6.5338936138292532	0.0003616550425470	-0.0002240850407101	-0.0000222795681748
Na	-0.9179204800007008	-2.3209737821198568	2.8218553878138732	-0.0002559411409851	-0.0005841510396460	-0.0003075156437018
Na	0.5746145742289349	0.0874634319394697	4.5973592205118825	-0.0000093239217503	-0.0003169965823709	0.0001655676159508
Na	7.3348978620501057	2.1786905197555715	3.3201470978392820	0.0002269057646361	-0.0000158135576970	-0.0004243902800110
Na	10.4695401144050244	3.0305205145453331	2.5591622671023275	0.0000906612611633	0.0003806590595932	0.0004099497630166
8
REF_energy=-445.0368520678837285 charge=-1 Properties=species:S:1:pos:R:3:REF_forces:R:3
Na	8.4894626576311900	8.4135374680896451	2.1000994624646290	-0.0002745127345377	0.0002793467982735	0.0002291653843283
Na	0.6593772161586717	3.3551877172330533	-2.2979837546380910	-0.0000187831764917	-0.0000999961134762	-0.0000531730227836
Na	-1.2044911369502525	0.3434177925140187	-1.7416167286605215	-0.0003688717710166	0.0002053771267166	0.0002550548278992
Na	6.1323051990684441	6.0492279997660461	1.7070714806374567	0.0000356334698079	-0.0002010514568859	0.0002020895978778
Na	2.4971394748440545	0.0622051151588351	3.2242577036349438	0.0001379465798914	-0.0001539911135913	0.0003546202012848
Na	3.2782750862961230	4.8118412585607357	-0.4617737683034994	0.0004562972672004	-0.0001731502836356	-0.0003629887086374
Na	1.4409094436338439	1.5769864057159011	0.4111341725717030	-0.0000600844062993	0.0001325927067318	-0.0002429901713575
Na	4.1736270039077992	3.0728361580412118	2.3300597277356654	0.0000923747714455	0.0000108723358671	-0.0003817781086115
8
REF_energy=-445.6070200427045620 charge=-1 Properties=species:S:1:pos:R:3:REF_forces:R:3
Na	7.2979545752867789	3.5803155911481639	1.9109736178056811	0.0000515804067852	-0.0000045805687273	-0.0000515524084921
Na	1.1486029189425071	3.3677017759055543	-2.3560138335170988	-0.0000531116135857	0.0000150780386642	0.0000833936820925
Na	1.6066650018625572	1.6970557338439016	0.6727840280566151	0.0000736898910298	-0.0000444708240428	0.0000061159810719
Na	4.4865579149672481	5.6171925563735083	2.2559142040845974	-0.0000123623360295	-0.0000212841077801	0.0000265522593663
Na	4.3835578295062207	1.7909726239691286	2.5939640531825656	-0.0000843150159014	0.0000490195087089	0.0000070301824734
Na	4.4641073532896280	3.4365298525712382	-0.5676643886933717	0.0000433886002727	-0.0000082947471387	0.0000399189398854
Na	1.6609255379962216	3.8709200805359427	3.4599591015727311	-0.0000392262933906	-0.0000059418277412	-0.0001246824324145
Na	1.7128891314467647	5.5175821501663274	0.3324821970998154	0.0000203563608195	0.0000204745280569	0.0000132237960171
8
REF_energy=-445.1900702646221362 charge=-1 Properties=species:S:1:pos:R:3:REF_forces:R:3
Na	8.0660344988562738	2.8915246854639851	5.0770231729603923	-0.0000632919887810	-0.0001904322595904	0.0000327457126740
Na	2.7705640144891150	7.2418085386785833	6.3457042666709427	-0.0001169686567341	-0.0003122876241595	-0.0000149081285055
Na	5.2944572457436916	8.0440085116919420	8.5487744824670440	0.0001314052209186	0.0001310744344019	-0.0001730588219656
Na	6.6807704408136468	0.6188404109778214	2.7076392936882301	0.0001673151358724	-0.0001189832931300	0.0001473699136111
Na	6.0676565120701644	5.9591364875834971	5.6787512350966649	0.0001161765563025	-0.0000734253555128	0.0000827715741071
Na	3.0567380151631682	5.3037383519247427	3.3916225265198103	-0.0000639752450355	0.0001652461893288	-0.0000309658295807
Na	3.8395968952116100	2.1807015864663790	1.3307795147615813	-0.0000312682559791	0.0000887760439581	-0.0000503073413422
Na	6.2033509735136674	4.2598431424172976	2.6472340071549896	-0.0001393927665638	0.0003100318647038	0.0000063529210018
8
REF_energy=-440.5125421352881858 charge=1 Properties=species:S:1:pos:R:3:REF_forces:R:3
Na	1.7510851529538334	5.1728520909415616	0.9623081969482939	-0.0003314690424795	0.0002279771202930	0.0006532089162774
Na	3.7130575691143721	2.7076912875922887	-0.7703210901413676	-0.0000048807076810	-0.0001668612186892	0.0001635720875506
Na	4.2879319524712214	6.2751547493706417	-1.0177582142289108	-0.0000952124347715	0.0001813044291560	-0.0006657311378006
Na	-0.4593085509093723	3.1888983629965182	2.8386466134819517	0.0001676936554814	0.0000031732595077	-0.0004036858138539
Na	2.7102031317619142	1.7045079642298659	2.5380425657147465	0.0001528403866635	-0.0000295502226013	-0.0001532126805897
Na	5.1087370994065973	4.3330852380359053	1.9786913301065141	0.0004346097742159	-0.0001763038940129	0.0002273360254064
Na	5.8006784959616358	0.7689242654375990	1.4632140030329188	-0.0002857080920397	0.0001408943629449	0.0001950204895271
Na	2.4201130845334760	4.7131486601480352	4.4380924461309146	-0.0000378735393891	-0.0001806338365983	-0.0000165078865171
8
REF_energy=-440.1837647856760327 charge=1 Properties=species:S:1:pos:R:3:REF_forces:R:3
Na	4.9031674998100545	5.2937739514711168	-0.6315104540627057	0.0001291125667597	-0.0004750002127676	-0.0000858552622512
Na	3.5902327684145825	7.5525384183627322	1.5998715985061160	-0.0001483506627443	0.0002364578546938	0.0001337624418180
Na	0.6438534982644445	2.9979390584064234	4.5848735235293105	0.0001214575480083	-0.0002050718930538	0.0000446565645157
Na	2.4640518766223578	4.0927859215050599	1.7939331492035890	-0.0000406121788368	0.0002323083348316	-0.0002331949860079
Na	1.0134836602217296	6.4818655632026223	3.8779401217324079	-0.0002416796224858	-0.0000905767902257	0.0001199099550544
Na	3.8294926630042898	1.8535940419677299	-0.4922668163494279	-0.0001172323727428	0.0000190895400652	-0.0001194730798463
Na	1.9408124949819630	0.6595948428733674	2.3056426893508890	0.0001850785103708	0.0003845122243018	0.0000945754015738
Na	6.0989370557399782	8.6280645897271295	-0.6517221070604006	0.0001122262116708	-0.0001017190578453	0.0000456189651435
8
REF_energy=-440.5968197161183184 charge=1 Properties=species:S:1:pos:R:3:REF_forces:R:3
Na	3.2530815210279269	5.4351832566650309	-1.5025433957021510	0.0000468095992399	0.0000004969597330	0.0000271922627502
Na	1.2365303168176238	2.7800820809814040	-0.2470974609576811	0.0000027893185714	0.0000168312219385	0.0000048812502456
Na	5.9106032677133769	5.8410445509781725	2.2206599088132846	-0.0000355318052042	0.0000403201772020	-0.0000245912066436
Na	2.4595283370143926	5.3701699151792832	1.9005412876772017	-0.0000049961071853	-0.0000724699938297	-0.0000083296244261
Na	4.3361443280623559	3.2568520957676590	4.0993086438990574	0.0000231439526749	-0.0000060029654511	-0.0000072615623913
Na	4.7235509385453218	3.0120544611025206	0.5455756550916800	0.0000237090334821	-0.0000172777664991	-0.0000206983604340
Na	2.9188885237559052	0.4448247686432601	2.1155958557472783	-0.0000316213787766	0.0000415205999979	-0.0000098306467332
Na	0.7035525824214554	2.7516936567827996	3.4398868760094228	-0.0000243026128023	-0.0000034182330915	0.0000386378876322
8
REF_energy=-445.2072910177836889 charge=-1 Properties=species:S:1:pos:R:3:REF_forces:R:3
Na	4.2893542094756230	0.3792973776591456	0.7728281651642535	-0.0000173657066593	0.0001316128852142	0.0003793645367544
Na	1.0427174815427320	2.1300547062520794	0.9325553367583619	-0.0004041466105636	-0.0002049103517121	-0.0002914041485928
Na	6.6049598930695153	3.0526408217157335	1.4008998863106967	-0.0000419622934066	-0.0000958336989726	-0.0002897038377001
Na	1.5668926046118454	5.6743511569508511	1.5020578367659017	0.0000567736578256	0.0003984741854530	-0.0000301669693537
Na	3.5892399112128381	3.2762058195451962	2.9051783120641490	0.0001450397906257	0.0000416160972953	0.0004169906475982
Na	5.1667310240593851	6.2926985300843352	1.3265234936131425	-0.0001677611575261	-0.0000796399148282	-0.0003941037009003
Na	1.4689559039114741	-0.7598321425920084	-1.0256953049622144	0.0003347136684051	0.0001514990116302	-0.0000895728711161
Na	2.8415222760874017	8.8352096573071304	0.5096852613112649	0.0000947086512993	-0.0003428182140800	0.0002985963433105
8
REF_energy=-445.1900702646221362 charge=-1 Properties=species:S:1:pos:R:3:REF_forces:R:3
Na	8.0660344988562738	2.8915246854639851	5.0770231729603923	-0.0000632919887810	-0.0001904322595904	0.0000327457126740
Na	2.7705640144891150	7.2418085386785833	6.3457042666709427	-0.0001169686567341	-0.0003122876241595	-0.0000149081285055
Na	5.2944572457436916	8.0440085116919420	8.5487744824670440	0.0001314052209186	0.0001310744344019	-0.0001730588219656
Na	6.6807704408136468	0.6188404109778214	2.7076392936882301	0.0001673151358724	-0.0001189832931300	0.0001473699136111
Na	6.0676565120701644	5.9591364875834971	5.6787512350966649	0.0001161765563025	-0.0000734253555128	0.0000827715741071
Na	3.0567380151631682	5.3037383519247427	3.3916225265198103	-0.0000639752450355	0.0001652461893288	-0.0000309658295807
Na	3.8395968952116100	2.1807015864663790	1.3307795147615813	-0.0000312682559791	0.0000887760439581	-0.0000503073413422
Na	6.2033509735136674	4.2598431424172976	2.6472340071549896	-0.0001393927665638	0.0003100318647038	0.0000063529210018
8
REF_energy=-445.4939860538104881 charge=-1 Properties=species:S:1:pos:R:3:REF_forces:R:3
Na	17.5551837121444940	1.4858458137612602	1.1761004536748823	-0.0000725837548646	-0.0001631340520665	-0.0003003720687044
Na	20.2484371797017850	2.3534668095475526	3.3500061448523168	-0.0002965981652599	0.0000087991140724	0.0001982574223350
Na	22.2152448633209119	2.9958262905410313	-1.9619767714784584	-0.0001123571603553	0.0000149163168027	0.0000641844637897
Na	20.1050361913235101	-0.9771769622024324	1.5382977623522134	0.0000560451247457	0.0002117285508494	-0.0001870802696064
Na	19.8345128355117453	3.9918303914809967	0.3538534553641956	0.0000261574031441	-0.0001601415417410	0.0002849941635868
Na	22.6102191693242709	1.3353818053007414	1.0686919673347617	0.0001159683468905	0.0005113729117516	0.0002359523433676
Na	19.6896372140696130	0.6730749487167718	-1.4506013079687339	0.0001875202155890	0.0000180890234135	0.0001472872211281
Na	25.4697977826688735	2.1712812450670209	-0.8768529047610423	0.0000958479901105	-0.0004416303230822	-0.0004432232758963
8
REF_energy=-445.5878749377483246 charge=-1 Properties=species:S:1:pos:R:3:REF_forces:R:3
Na	19.0235606865461300	5.9895716934310537	0.9287579361303250	0.0000721788635778	0.0000977986588463	0.0001130994167846
Na	15.7787742759432401	4.7627744769637550	0.7988226584590465	0.0000601178941160	-0.0000622075378225	-0.0000579470143192
Na	16.3680007502179414	8.2647678381945404	-0.0924384418293687	-0.0000031796236743	-0.0000688119452711	0.0000560171546441
Na	19.7089430301110120	9.0124414980724961	-0.5184414034474709	0.0000209335483723	-0.0000965840994398	0.0000408654107467
Na	17.5680625044564316	8.6669506615703522	-3.3033197995225128	-0.0000491628903817	-0.0000355190438668	-0.0001197870602021
Na	21.1266657133674371	8.5617149757569830	-3.7848725984753493	0.0000599093644412	0.0000088632595633	-0.0000797673305535
Na	16.3434619241869292	5.5671518205960764	-2.5320070367415983	0.0000060951020603	0.0001306566681548	-0.0000922733093374
Na	19.7637786709539611	5.6572150894347368	-2.3963168395062704	-0.0001668922585116	0.0000258040398359	0.0001397927322368
8
REF_energy=-445.6854050421662237 charge=-1 Properties=species:S:1:pos:R:3:REF_forces:R:3
Na	5.0841181844188688	5.0048666703049252	3.5449745426191632	0.0000028102602863	-0.0000067930198595	-0.0000367607542600
Na	1.8637422961118546	4.5078894056205350	-1.7649450883295763	0.0000189717247069	-0.0000035066270132	-0.0000112234940632
Na	1.3490570575072640	2.2185921718169905	0.9914128450602695	0.0000159175809449	0.0000101035447809	0.0000244099513586
Na	5.0106809586311760	4.7205207521011250	0.0130363231926016	0.0000052424607647	-0.0000089913762181	-0.0000043915329430
Na	4.6673105655078517	1.8255970250262374	1.8582985345971019	-0.0000114746765222	0.0000161585549464	-0.0000005086192458
Na	3.8398340586415118	1.6853238392551220	-1.5825883012803208	0.0000010498620614	0.0000173573634200	-0.0000052808583845
Na	2.3012006484341696	3.1043695491004293	4.2831955238941770	-0.0000236728839655	-0.0000055984939929	0.0000146586664490
Na	2.0663045019899369	5.5396278006708393	1.6162210634776273	-0.0000088443282766	-0.0000187299460636	0.0000190966410889
8
REF_energy=-444.9538408427252989 charge=-1 Properties=species:S:1:pos:R:3:REF_forces:R:3
Na	-2.8669234645563511	-0.8297149634147922	5.3873433320455586	-0.0001852847095246	0.0006560945618663	0.0003439620239485
Na	-1.5836430853474415	1.6433880125765468	7.3238887387546603	0.0001011755320423	0.0000335314317032	-0.0002000795286214
Na	4.0247121408118725	1.2391531475221882	4.0562467052341660	-0.0003298478281286	0.0000707611672614	0.0000347856175932
Na	1.7559574744585600	2.5079838853422598	6.5338936138292532	0.0003616550425470	-0.0002240850407101	-0.0000222795681748
Na	-0.9179204800007008	-2.3209737821198568	2.8218553878138732	-0.0002559411409851	-0.0005841510396460	-0.0003075156437018
Na	0.5746145742289349	0.0874634319394697	4.5973592205118825	-0.0000093239217503	-0.0003169965823709	0.0001655676159508
Na	7.3348978620501057	2.1786905197555715	3.3201470978392820	0.0002269057646361	-0.0000158135576970	-0.0004243902800110
Na	10.4695401144050244	3.0305205145453331	2.5591622671023275	0.0000906612611633	0.0003806590595932	0.0004099497630166
8
REF_energy=-445.1587532376281047 charge=-1 Properties=species:S:1:pos:R:3:REF_forces:R:3
Na	6.9771526767531045	2.2433818965288195	5.5491735030608567	0.0000389248390189	0.0000009332392158	-0.0000257545844867
Na	1.5627719900036567	7.3990990500742218	-0.3804586210750330	0.0000274487601220	-0.0000098648902010	-0.0000212567141601
Na	2.6429976002579818	1.5575479257492808	-0.0024095231546833	-0.0000280787160160	0.0000048974103714	-0.0000596798424789
Na	0.4049341070831498	1.2258812703647202	-2.8639154623486456	-0.0000044086864628	-0.0000124782527822	0.0000290830173779
Na	5.5529616456089057	5.0869285564423485	4.2107870812903245	-0.0000412907217722	-0.0000131850874757	0.0000233181746672
Na	4.7808944684104020	1.9228718562968787	2.7394479044856004	-0.0000041707644169	0.0000349092445985	0.0000144739423643
Na	3.2951345737412798	4.8271324865378045	1.3461471152624855	-0.0000205760805341	-0.0000103347192878	0.0000318953738773
Na	0.9654012093848778	4.3439441719020389	-1.6391665542900393	0.0000321513700610	0.0000051230555610	0.0000079206328390
8
REF_energy=-445.5878749377483246 charge=-1 Properties=species:S:1:pos:R:3:REF_forces:R:3
Na	19.0235606865461300	5.9895716934310537	0.9287579361303250	0.0000721788635778	0.0000977986588463	0.0001130994167846
Na	15.7787742759432401	4.7627744769637550	0.7988226584590465	0.0000601178941160	-0.0000622075378225	-0.0000579470143192
Na	16.3680007502179414	8.2647678381945404	-0.0924384418293687	-0.0000031796236743	-0.0000688119452711	0.0000560171546441
Na	19.7089430301110120	9.0124414980724961	-0.5184414034474709	0.0000209335483723	-0.0000965840994398	0.0000408654107467
Na	17.5680625044564316	8.6669506615703522	-3.3033197995225128	-0.0000491628903817	-0.0000355190438668	-0.0001197870602021
Na	21.1266657133674371	8.5617149757569830	-3.7848725984753493	0.0000599093644412	0.0000088632595633	-0.0000797673305535
Na	16.3434619241869292	5.5671518205960764	-2.5320070367415983	0.0000060951020603	0.0001306566681548	-0.0000922733093374
Na	19.7637786709539611	5.6572150894347368	-2.3963168395062704	-0.0001668922585116	0.0000258040398359	0.0001397927322368
8
REF_energy=-445.1657785233832669 charge=-1 Properties=species:S:1:pos:R:3:REF_forces:R:3
Na	8.9539414690637429	7.6192996628736713	3.1504816777396751	0.0000005931420798	-0.0000338356778604	0.0000439717486359
Na	6.6641566149793459	5.4317720495703643	1.7493105422898989	0.0000487348755149	0.0000232345046745	0.0000405750218437
Na	6.3621185960603599	6.1738363840188750	5.1934786595552147	-0.0000647941659367	0.0000444186172976	0.0000481118996526
Na	3.6285292743664854	4.4639249842102195	6.6485542529639288	0.0000603356806767	-0.0000615742975668	-0.0001066904123886
Na	5.5372222612423476	6.5099689982210140	8.6866215148039672	-0.0000125088733822	0.0000055619502435	-0.0000960655150692
Na	3.9318189496413702	3.7197486538747753	3.2043741181145200	0.0000460658866837	0.0000295974330605	0.0000998939526983
Na	4.7708131785246737	3.3667245641207368	-0.2835665262819448	-0.0000937551381620	-0.0000291539809196	-0.0000309869069180
Na	1.3257294394899530	2.2931696846588099	5.2424724829072531	0.0000153285925258	0.0000217514510706	0.0000011902115453
8
REF_energy=-445.1510461027833117 charge=-1 Properties=species:S:1:pos:R:3:REF_forces:R:3
Na	3.6940674335613646	0.2094455422234599	5.1138663118978620	0.0000080290208905	-0.0000136284674542	-0.0000725578308594
Na	0.3545206704547100	0.2097702303719972	3.8526352591177404	-0.0000375151580868	0.0000021008986787	-0.0000141817586852
Na	6.9627292132922110	0.2097413661039723	4.4923674486466050	-0.0000154605748541	0.0000018043738633	0.0000186233608445
Na	4.3168988782457491	0.2097411122464729	1.8455730732702322	0.0000146742155482	0.0000018337234101	0.0000126115695711
Na	1.0349631534705839	0.2098131713646974	0.4728811602019090	0.0000103458410482	0.0000016293243599	0.0000272182201577
Na	4.9562388970494338	0.2097711512155004	8.4532912941461760	-0.0000188658921109	0.0000022859460194	-0.0000167480969623
Na	1.3842452366120221	0.2097451283002481	7.4244416542228189	-0.0000020822260376	0.0000024490608553	0.0000330502487401
Na	8.3361677086145676	0.2098122926041839	7.7739152678985564	0.0000408747736025	0.0000015251402675	0.0000119842871935
8
REF_energy=-445.0172471085627990 charge=-1 Properties=species:S:1:pos:R:3:REF_forces:R:3
Na	1.1567151466989680	6.6356906918062935	4.0542262508490365	-0.0000070213047486	-0.0000216605934733	-0.0000190052617451
Na	3.0827662972040910	0.8152842143065047	-4.4323584042058526	-0.0001846122950902	0.0000521111513946	-0.0002328609733421
Na	4.9971534963561961	1.6158112804575360	1.1707186746817206	0.0001035219425193	-0.0000869046982411	-0.0000437144544132
Na	-0.1978808732422306	8.9002157312134091	6.1055738433462468	-0.0000600826526509	0.0000234650578677	-0.0000125259545881
Na	7.3707991779847175	-0.9643881396052537	0.4635095451016696	-0.0001584231287923	0.0000556316838545	-0.0001693891159803