8
REF_energy=-440.1837647856760327 charge=1 Properties=species:S:1:pos:R:3:REF_forces:R:3
Na	4.9031674998100545	5.2937739514711168	-0.6315104540627057	0.0001291125667597	-0.0004750002127676	-0.0000858552622512
Na	3.5902327684145825	7.5525384183627322	1.5998715985061160	-0.0001483506627443	0.0002364578546938	0.0001337624418180
Na	0.6438534982644445	2.9979390584064234	4.5848735235293105	0.0001214575480083	-0.0002050718930538	0.0000446565645157
Na	2.4640518766223578	4.0927859215050599	1.7939331492035890	-0.0000406121788368	0.0002323083348316	-0.0002331949860079
Na	1.0134836602217296	6.4818655632026223	3.8779401217324079	-0.0002416796224858	-0.0000905767902257	0.0001199099550544
Na	3.8294926630042898	1.8535940419677299	-0.4922668163494279	-0.0001172323727428	0.0000190895400652	-0.0001194730798463
Na	1.9408124949819630	0.6595948428733674	2.3056426893508890	0.0001850785103708	0.0003845122243018	0.0000945754015738
Na	6.0989370557399782	8.6280645897271295	-0.6517221070604006	0.0001122262116708	-0.0001017190578453	0.0000456189651435
8
REF_energy=-444.8660976038308377 charge=-1 Properties=species:S:1:pos:R:3:REF_forces:R:3
Na	15.0473753246438378	-3.1177499758173535	1.7400254701657571	-0.0002370371242304	-0.0001944282223054	-0.0003263936866562
Na	15.6596710918104325	6.7274491782292447	-1.3187334584586610	0.0006676940312290	-0.0002300286936991	0.0001840197797969
Na	15.5626414100844865	-0.3329344703379471	-0.1796004746716597	0.0000240944392691	0.0002149138543528	0.0001312050900637
Na	21.7070848594345911	-3.0019924173623447	0.8277369251813413	0.0002507598120303	0.0001354610506306	0.0003047008323549
Na	15.7899242409284941	3.2370356652192980	-0.8382732104672997	0.0000069803778549	-0.0006346250876012	-0.0004582416247125
Na	18.4546483365637428	-2.6279595157246591	1.0515986691520611	0.0000381101042825	0.0005368212631281	-0.0000648185811657
Na	13.9988186967010027	1.2236556522619129	-3.0018671537209491	-0.0003405253913575	0.0001311690087891	0.0001336089946248
Na	13.9574851514204106	4.7013023263132094	-3.5042945020876890	-0.0004100762490779	0.0000407168267050	0.0000959191956941
8
REF_energy=-444.9538408427252989 charge=-1 Properties=species:S:1:pos:R:3:REF_forces:R:3
Na	-2.8669234645563511	-0.8297149634147922	5.3873433320455586	-0.0001852847095246	0.0006560945618663	0.0003439620239485
Na	-1.5836430853474415	1.6433880125765468	7.3238887387546603	0.0001011755320423	0.0000335314317032	-0.0002000795286214
Na	4.0247121408118725	1.2391531475221882	4.0562467052341660	-0.0003298478281286	0.0000707611672614	0.0000347856175932
Na	1.7559574744585600	2.5079838853422598	6.5338936138292532	0.0003616550425470	-0.0002240850407101	-0.0000222795681748
Na	-0.9179204800007008	-2.3209737821198568	2.8218553878138732	-0.0002559411409851	-0.0005841510396460	-0.0003075156437018
Na	0.5746145742289349	0.0874634319394697	4.5973592205118825	-0.0000093239217503	-0.0003169965823709	0.0001655676159508
Na	7.3348978620501057	2.1786905197555715	3.3201470978392820	0.0002269057646361	-0.0000158135576970	-0.0004243902800110
Na	10.4695401144050244	3.0305205145453331	2.5591622671023275	0.0000906612611633	0.0003806590595932	0.0004099497630166
8
REF_energy=-444.9638191649535770 charge=-1 Properties=species:S:1:pos:R:3:REF_forces:R:3
Na	9.9730550702589174	4.7804518272346908	3.9497160682244581	-0.0001953110251963	-0.0000668232149010	0.0002361334156910
Na	1.4220985409553240	4.4130509727947844	-0.2983422590038259	0.0001173761426897	-0.0000256048857220	-0.0002556665321292
Na	-1.5319338425851290	-1.3886159381752383	-0.4889574670099838	0.0000588545317470	0.0003285126851702	0.0000049930313329
Na	4.3819375429541365	6.0010148035762754	0.8521619795304867	0.0001346587517031	0.0000355879172406	0.0000124482769374
Na	6.9622663245179863	4.2385223810698278	2.5705264759989439	0.0000669888026019	0.0002097725712075	-0.0004307649814099
Na	3.8807560718999605	2.5822429971184824	1.3795181831162810	0.0004102281396825	-0.0002308517224339	0.0002133334966064
Na	0.8004720460424453	0.9319338816096774	0.1736668052108929	-0.0002986181308238	-0.0000428795651570	0.0000741925189327
Na	1.9354958705947687	7.8100013496975320	-0.8225384359149494	-0.0002941772124040	-0.0002077137854044	0.0001453307740387
8
REF_energy=-445.4939860538104881 charge=-1 Properties=species:S:1:pos:R:3:REF_forces:R:3
Na	17.5551837121444940	1.4858458137612602	1.1761004536748823	-0.0000725837548646	-0.0001631340520665	-0.0003003720687044
Na	20.2484371797017850	2.3534668095475526	3.3500061448523168	-0.0002965981652599	0.0000087991140724	0.0001982574223350
Na	22.2152448633209119	2.9958262905410313	-1.9619767714784584	-0.0001123571603553	0.0000149163168027	0.0000641844637897
Na	20.1050361913235101	-0.9771769622024324	1.5382977623522134	0.0000560451247457	0.0002117285508494	-0.0001870802696064
Na	19.8345128355117453	3.9918303914809967	0.3538534553641956	0.0000261574031441	-0.0001601415417410	0.0002849941635868
Na	22.6102191693242709	1.3353818053007414	1.0686919673347617	0.0001159683468905	0.0005113729117516	0.0002359523433676
Na	19.6896372140696130	0.6730749487167718	-1.4506013079687339	0.0001875202155890	0.0000180890234135	0.0001472872211281
Na	25.4697977826688735	2.1712812450670209	-0.8768529047610423	0.0000958479901105	-0.0004416303230822	-0.0004432232758963
8
REF_energy=-445.1900702646221362 charge=-1 Properties=species:S:1:pos:R:3:REF_forces:R:3
Na	8.0660344988562738	2.8915246854639851	5.0770231729603923	-0.0000632919887810	-0.0001904322595904	0.0000327457126740
Na	2.7705640144891150	7.2418085386785833	6.3457042666709427	-0.0001169686567341	-0.0003122876241595	-0.0000149081285055
Na	5.2944572457436916	8.0440085116919420	8.5487744824670440	0.0001314052209186	0.0001310744344019	-0.0001730588219656
Na	6.6807704408136468	0.6188404109778214	2.7076392936882301	0.0001673151358724	-0.0001189832931300	0.0001473699136111
Na	6.0676565120701644	5.9591364875834971	5.6787512350966649	0.0001161765563025	-0.0000734253555128	0.0000827715741071
Na	3.0567380151631682	5.3037383519247427	3.3916225265198103	-0.0000639752450355	0.0001652461893288	-0.0000309658295807
Na	3.8395968952116100	2.1807015864663790	1.3307795147615813	-0.0000312682559791	0.0000887760439581	-0.0000503073413422
Na	6.2033509735136674	4.2598431424172976	2.6472340071549896	-0.0001393927665638	0.0003100318647038	0.0000063529210018
8
REF_energy=-445.1587532376281047 charge=-1 Properties=species:S:1:pos:R:3:REF_forces:R:3
Na	6.9771526767531045	2.2433818965288195	5.5491735030608567	0.0000389248390189	0.0000009332392158	-0.0000257545844867
Na	1.5627719900036567	7.3990990500742218	-0.3804586210750330	0.0000274487601220	-0.0000098648902010	-0.0000212567141601
Na	2.6429976002579818	1.5575479257492808	-0.0024095231546833	-0.0000280787160160	0.0000048974103714	-0.0000596798424789
Na	0.4049341070831498	1.2258812703647202	-2.8639154623486456	-0.0000044086864628	-0.0000124782527822	0.0000290830173779
Na	5.5529616456089057	5.0869285564423485	4.2107870812903245	-0.0000412907217722	-0.0000131850874757	0.0000233181746672
Na	4.7808944684104020	1.9228718562968787	2.7394479044856004	-0.0000041707644169	0.0000349092445985	0.0000144739423643
Na	3.2951345737412798	4.8271324865378045	1.3461471152624855	-0.0000205760805341	-0.0000103347192878	0.0000318953738773
Na	0.9654012093848778	4.3439441719020389	-1.6391665542900393	0.0000321513700610	0.0000051230555610	0.0000079206328390
8
REF_energy=-440.3809458930070377 charge=1 Properties=species:S:1:pos:R:3:REF_forces:R:3
Na	2.2934098101369993	2.5187444244688035	2.5187444244110515	-0.0000787651928149	0.0000008244308119	0.0000008246393223
Na	3.6390535254477796	5.1695797328253326	5.1695797330751398	0.0000377363067147	-0.0002037499919995	-0.0002037501735692
Na	5.7024800413946908	3.1064863998329724	3.1064863999387979	-0.0001267959024376	0.0002405012856992	0.0002405010802315
Na	3.0367231221640330	5.7717248520439188	1.7643184901972655	0.0000908411233754	-0.0001488532452627	0.0001424945913416
Na	6.2894171367714531	6.5161163457893947	2.5188934915340808	-0.0000590255005232	0.0000374544301119	0.0000118955580154
Na	3.0367231214143682	1.7643184905319167	5.7717248524202818	0.0000908415284623	0.0001424947085881	-0.0001488532216688
Na	6.2894171372936301	2.5188934911157630	6.5161163453565498	-0.0000590257964737	0.0000118957028671	0.0000374543612282
Na	7.0444270777434346	5.7712169327949105	5.7712169324697626	0.0001041934336970	-0.0000805673208159	-0.0000805668349010
8
REF_energy=-444.6180281804350329 charge=-1 Properties=species:S:1:pos:R:3:REF_forces:R:3
Na	6.9456327371886584	-1.7963666979305684	7.1746008352404838	-0.0000889520677389	0.0000019074828028	-0.0000305662219837
Na	-2.3121484564422046	0.7368314154532393	3.8128023109189400	-0.0000547712046531	-0.0000016691549800	0.0001057507013967
Na	3.8637811222718956	-0.9666133495653338	6.0725348777785229	0.0000557190060669	-0.0000878435545783	0.0000405666432865
Na	10.1237724108919469	-2.6265183084992350	8.2997692660402560	0.0000488259181838	-0.0000326492217653	-0.0000280339390021
Na	13.1095097731491190	-3.4202997178607286	9.3731040580355067	0.0000071287789349	0.0000873926938598	-0.0000013251514920
Na	0.7519069765051943	-0.1171071330526209	4.9420571701424159	-0.0000024965874647	-0.0000325143664819	-0.0000088784196305
Na	-5.4582778676078094	1.6275280077831547	2.6505111298842987	-0.0000286926213828	0.0000354906455317	-0.0000243201766091
Na	-8.4143261280212567	2.4773700558309786	1.5402132333268890	0.0000632387780539	0.0000298854756111	-0.0000531934359659
8
REF_energy=-440.1837647856760327 charge=1 Properties=species:S:1:pos:R:3:REF_forces:R:3
Na	4.9031674998100545	5.2937739514711168	-0.6315104540627057	0.0001291125667597	-0.0004750002127676	-0.0000858552622512
Na	3.5902327684145825	7.5525384183627322	1.5998715985061160	-0.0001483506627443	0.0002364578546938	0.0001337624418180
Na	0.6438534982644445	2.9979390584064234	4.5848735235293105	0.0001214575480083	-0.0002050718930538	0.0000446565645157
Na	2.4640518766223578	4.0927859215050599	1.7939331492035890	-0.0000406121788368	0.0002323083348316	-0.0002331949860079
Na	1.0134836602217296	6.4818655632026223	3.8779401217324079	-0.0002416796224858	-0.0000905767902257	0.0001199099550544
Na	3.8294926630042898	1.8535940419677299	-0.4922668163494279	-0.0001172323727428	0.0000190895400652	-0.0001194730798463
Na	1.9408124949819630	0.6595948428733674	2.3056426893508890	0.0001850785103708	0.0003845122243018	0.0000945754015738
Na	6.0989370557399782	8.6280645897271295	-0.6517221070604006	0.0001122262116708	-0.0001017190578453	0.0000456189651435
8
REF_energy=-445.2072910177836889 charge=-1 Properties=species:S:1:pos:R:3:REF_forces:R:3
Na	4.2893542094756230	0.3792973776591456	0.7728281651642535	-0.0000173657066593	0.0001316128852142	0.0003793645367544
Na	1.0427174815427320	2.1300547062520794	0.9325553367583619	-0.0004041466105636	-0.0002049103517121	-0.0002914041485928
Na	6.6049598930695153	3.0526408217157335	1.4008998863106967	-0.0000419622934066	-0.0000958336989726	-0.0002897038377001
Na	1.5668926046118454	5.6743511569508511	1.5020578367659017	0.0000567736578256	0.0003984741854530	-0.0000301669693537
Na	3.5892399112128381	3.2762058195451962	2.9051783120641490	0.0001450397906257	0.0000416160972953	0.0004169906475982
Na	5.1667310240593851	6.2926985300843352	1.3265234936131425	-0.0001677611575261	-0.0000796399148282	-0.0003941037009003
Na	1.4689559039114741	-0.7598321425920084	-1.0256953049622144	0.0003347136684051	0.0001514990116302	-0.0000895728711161
Na	2.8415222760874017	8.8352096573071304	0.5096852613112649	0.0000947086512993	-0.0003428182140800	0.0002985963433105
8
REF_energy=-445.1657785233832669 charge=-1 Properties=species:S:1:pos:R:3:REF_forces:R:3
Na	8.9539414690637429	7.6192996628736713	3.1504816777396751	0.0000005931420798	-0.0000338356778604	0.0000439717486359
Na	6.6641566149793459	5.4317720495703643	1.7493105422898989	0.0000487348755149	0.0000232345046745	0.0000405750218437
Na	6.3621185960603599	6.1738363840188750	5.1934786595552147	-0.0000647941659367	0.0000444186172976	0.0000481118996526
Na	3.6285292743664854	4.4639249842102195	6.6485542529639288	0.0000603356806767	-0.0000615742975668	-0.0001066904123886
Na	5.5372222612423476	6.5099689982210140	8.6866215148039672	-0.0000125088733822	0.0000055619502435	-0.0000960655150692
Na	3.9318189496413702	3.7197486538747753	3.2043741181145200	0.0000460658866837	0.0000295974330605	0.0000998939526983
Na	4.7708131785246737	3.3667245641207368	-0.2835665262819448	-0.0000937551381620	-0.0000291539809196	-0.0000309869069180
Na	1.3257294394899530	2.2931696846588099	5.2424724829072531	0.0000153285925258	0.0000217514510706	0.0000011902115453
8
REF_energy=-440.1837647856760327 charge=1 Properties=species:S:1:pos:R:3:REF_forces:R:3
Na	4.9031674998100545	5.2937739514711168	-0.6315104540627057	0.0001291125667597	-0.0004750002127676	-0.0000858552622512
Na	3.5902327684145825	7.5525384183627322	1.5998715985061160	-0.0001483506627443	0.0002364578546938	0.0001337624418180
Na	0.6438534982644445	2.9979390584064234	4.5848735235293105	0.0001214575480083	-0.0002050718930538	0.0000446565645157
Na	2.4640518766223578	4.0927859215050599	1.7939331492035890	-0.0000406121788368	0.0002323083348316	-0.0002331949860079
Na	1.0134836602217296	6.4818655632026223	3.8779401217324079	-0.0002416796224858	-0.0000905767902257	0.0001199099550544
Na	3.8294926630042898	1.8535940419677299	-0.4922668163494279	-0.0001172323727428	0.0000190895400652	-0.0001194730798463
Na	1.9408124949819630	0.6595948428733674	2.3056426893508890	0.0001850785103708	0.0003845122243018	0.0000945754015738
Na	6.0989370557399782	8.6280645897271295	-0.6517221070604006	0.0001122262116708	-0.0001017190578453	0.0000456189651435
8
REF_energy=-440.3809458930070377 charge=1 Properties=species:S:1:pos:R:3:REF_forces:R:3
Na	2.2934098101369993	2.5187444244688035	2.5187444244110515	-0.0000787651928149	0.0000008244308119	0.0000008246393223
Na	3.6390535254477796	5.1695797328253326	5.1695797330751398	0.0000377363067147	-0.0002037499919995	-0.0002037501735692
Na	5.7024800413946908	3.1064863998329724	3.1064863999387979	-0.0001267959024376	0.0002405012856992	0.0002405010802315
Na	3.0367231221640330	5.7717248520439188	1.7643184901972655	0.0000908411233754	-0.0001488532452627	0.0001424945913416
Na	6.2894171367714531	6.5161163457893947	2.5188934915340808	-0.0000590255005232	0.0000374544301119	0.0000118955580154
Na	3.0367231214143682	1.7643184905319167	5.7717248524202818	0.0000908415284623	0.0001424947085881	-0.0001488532216688
Na	6.2894171372936301	2.5188934911157630	6.5161163453565498	-0.0000590257964737	0.0000118957028671	0.0000374543612282
Na	7.0444270777434346	5.7712169327949105	5.7712169324697626	0.0001041934336970	-0.0000805673208159	-0.0000805668349010
8
REF_energy=-445.1587532376281047 charge=-1 Properties=species:S:1:pos:R:3:REF_forces:R:3
Na	6.9771526767531045	2.2433818965288195	5.5491735030608567	0.0000389248390189	0.0000009332392158	-0.0000257545844867
Na	1.5627719900036567	7.3990990500742218	-0.3804586210750330	0.0000274487601220	-0.0000098648902010	-0.0000212567141601
Na	2.6429976002579818	1.5575479257492808	-0.0024095231546833	-0.0000280787160160	0.0000048974103714	-0.0000596798424789
Na	0.4049341070831498	1.2258812703647202	-2.8639154623486456	-0.0000044086864628	-0.0000124782527822	0.0000290830173779
Na	5.5529616456089057	5.0869285564423485	4.2107870812903245	-0.0000412907217722	-0.0000131850874757	0.0000233181746672
Na	4.7808944684104020	1.9228718562968787	2.7394479044856004	-0.0000041707644169	0.0000349092445985	0.0000144739423643
Na	3.2951345737412798	4.8271324865378045	1.3461471152624855	-0.0000205760805341	-0.0000103347192878	0.0000318953738773
Na	0.9654012093848778	4.3439441719020389	-1.6391665542900393	0.0000321513700610	0.0000051230555610	0.0000079206328390
8
REF_energy=-444.6455439919799915 charge=-1 Properties=species:S:1:pos:R:3:REF_forces:R:3
Na	0.8117969285147204	3.2056709132474834	-4.4256088555985231	-0.0003269288743797	-0.0001319242274319	-0.0003588633504887
Na	3.2528615067355950	5.1503135044703852	11.7692191504550596	-0.0000275766036286	-0.0001052778568454	0.0001306035468425
Na	2.6857216849293204	3.3700325654174499	-1.6462800445955768	-0.0003526646294215	0.0000823189853862	-0.0001289337730975
Na	6.9365742097998915	2.3826128262846780	-6.9360686869478823	0.0002186875442039	-0.0000555334495821	0.0002214755324390
Na	3.3321348588328266	4.1731625360285047	5.0864751679937230	0.0002712099978727	-0.0000543474892633	0.0001766380037556
Na	4.2391694166694665	2.8213965668961274	-5.1725223825545923	0.0001749904025586	-0.0000007398953864	0.0000584186338166
Na	3.2945058632634718	3.7288447529053252	1.7283826424107758	-0.0001195272716573	0.0002108967105492	-0.0001043265513521
Na	3.3030950279455498	4.6656340093475022	8.5204073357669774	0.0001618094344519	0.0000546072225738	0.0000049879580846
8
REF_energy=-445.0282299647089985 charge=-1 Properties=species:S:1:pos:R:3:REF_forces:R:3
Na	4.7746080625018310	2.9196613321778462	4.6245179754053725	0.0003437579230575	-0.0002168608168542	0.0001760994117369
Na	1.6393751517517494	6.2202867181514074	0.7336875262163046	-0.0004395783384067	-0.0002246085074798	-0.0006467059486647
Na	5.5206105178443776	-1.9905302493653176	-3.3017391238592166	-0.0000746011010461	0.0004519369901531	-0.0003836794449372
Na	2.5435400571049356	3.7109093163651230	-1.5860959815953823	0.0003875779229944	0.0000880431679565	0.0002004818016216
Na	3.7605722246284428	3.1014706359892781	1.3829045300724530	0.0001055749598339	-0.0004521597888684	0.0002042943890819
Na	4.4935839261829571	0.6081366043607893	-1.4125707971351540	-0.0001356698234580	-0.0005278856494572	0.0000449070169699
Na	2.8490076078426942	5.6966818850090464	3.9161705142339023	0.0001384139729880	0.0000141350399563	0.0005695476226251
Na	0.9482563436822496	8.5535513380016823	3.5940697029607565	-0.0003254755159631	0.0008673995645937	-0.0001649448484336
8
REF_energy=-440.0426584604023219 charge=1 Properties=species:S:1:pos:R:3:REF_forces:R:3
Na	3.6725722968972101	3.1321221055202479	4.0688757668304261	0.0001145750375039	-0.0000645856723766	-0.0002155264286100
Na	1.6463705037483449	6.1076707485799409	3.9601760901987579	0.0000571405029773	-0.0001497905047292	-0.0000050141490779
Na	5.9895924300980248	0.5977298493291614	4.2365781510167704	0.0000462038842543	-0.0000531293306295	0.0001893396223728
Na	5.0841139831613011	6.8311870826396142	4.7624510766897394	-0.0002543279010948	0.0002440537423842	0.0000545841275380
Na	7.1116352771870712	3.8572872079884171	4.8673963857440121	-0.0001439274562653	-0.0001969513888915	-0.0002617000293149
Na	0.3632694816172629	2.9483073190193232	3.1536968793715880	-0.0000740528083739	0.0001223083061886	0.0000862207330292
Na	8.4344847882054310	7.0376375949583316	5.5091496991884368	0.0000863440997478	0.0001847308034827	0.0001428172500551
Na	2.7416242751673012	9.3479045533373064	4.7215558515378033	0.0001680446412507	-0.0000866359554287	0.0000092788740077
8
REF_energy=-445.0980163598940180 charge=-1 Properties=species:S:1:pos:R:3:REF_forces:R:3
Na	4.8137582550312832	0.3552086353826577	6.9821789094161613	0.0002014819163043	0.0001307505072988	-0.0001246742158377
Na	2.4424680900176474	-1.3729081919171182	4.9999444448785644	-0.0001524135887182	-0.0001087241554864	0.0002292316714552
Na	7.7253972189018620	1.8300210924541707	5.6743093550987034	-0.0001131760568286	-0.0000426139185303	-0.0001831966991986
Na	-1.1478415067741019	-0.6089197587197662	4.9166901720070371	0.0001698835582533	-0.0001402938966257	-0.0001041477135264
Na	-0.1127204336923573	-3.6707558293184239	3.9917202515096939	0.0000050209920299	0.0000896115859554	-0.0001358323391611
Na	4.7488523467388921	1.6820692766878493	3.7934251492443378	0.0000690234296344	-0.0001072978715663	0.0001991653635605
Na	1.5276103137647432	1.8928121669916422	5.2348801701169068	-0.0002062741498280	0.0001196718891632	0.0002307774047934
Na	-1.9440662893841385	2.5271293635001628	5.8306760354603488	0.0000264538991530	0.0000588958597913	-0.0001113234720853
8
REF_energy=-444.9888098449116001 charge=-1 Properties=species:S:1:pos:R:3:REF_forces:R:3
Na	9.1343631257551046	1.8361839916832645	-1.9337180309704680	0.0000523611004233	-0.0000012308191949	-0.0000273765254673
Na	-0.8383184834469154	2.1749021766083092	-1.4434779024495732	0.0000233035930472	-0.0000223442207442	0.0000651075955646
Na	2.6908536540237860	2.6253786734710198	-0.6653538864471769	-0.0001148380817964	0.0000123218777601	0.0001157539336943
Na	4.4056890011600620	5.9979643598820660	5.0984225963719636	-0.0003092441574636	-0.0002129338403000	-0.0000687382351034
Na	1.1512472415825890	5.4516142598009774	4.2003625862459550	0.0001308678296444	0.0001939422592964	0.0000219906279747
Na	6.3225754029772601	2.7585057307589431	-0.4009491256617205	-0.0000278606272877	0.0000968848078721	0.0000517719448833
Na	0.0061760404648207	3.8294251156619992	1.4125997825127523	0.0000687181961828	0.0000118782100661	0.0000149309838944
Na	3.8886742807807244	4.2042960566472116	2.0345129599894793	0.0001766921472500	-0.0000785182747558	-0.0001734403254405
8
REF_energy=-444.9538408427252989 charge=-1 Properties=species:S:1:pos:R:3:REF_forces:R:3
Na	-2.8669234645563511	-0.8297149634147922	5.3873433320455586	-0.0001852847095246	0.0006560945618663	0.0003439620239485
Na	-1.5836430853474415	1.6433880125765468	7.3238887387546603	0.0001011755320423	0.0000335314317032	-0.0002000795286214
Na	4.0247121408118725	1.2391531475221882	4.0562467052341660	-0.0003298478281286	0.0000707611672614	0.0000347856175932
Na	1.7559574744585600	2.5079838853422598	6.5338936138292532	0.0003616550425470	-0.0002240850407101	-0.0000222795681748
Na	-0.9179204800007008	-2.3209737821198568	2.8218553878138732	-0.0002559411409851	-0.0005841510396460	-0.0003075156437018
Na	0.5746145742289349	0.0874634319394697	4.5973592205118825	-0.0000093239217503	-0.0003169965823709	0.0001655676159508
Na	7.3348978620501057	2.1786905197555715	3.3201470978392820	0.0002269057646361	-0.0000158135576970	-0.0004243902800110
Na	10.4695401144050244	3.0305205145453331	2.5591622671023275	0.0000906612611633	0.0003806590595932	0.0004099497630166
8
REF_energy=-445.2401577326228335 charge=-1 Properties=species:S:1:pos:R:3:REF_forces:R:3
Na	1.5629163950421272	6.0560622722571296	6.9537767311868262	0.0000999687397102	0.0001009163628769	0.0005880951507156
Na	1.9985363979230382	2.8751383904081016	6.0554787926196729	-0.0002774514394547	0.0004451470559618	0.0001424481809660
Na	3.2812739153271848	-2.9992053480761931	6.3522767863035314	-0.0000914762742746	0.0006413385425016	-0.0002461863188996
Na	2.2695572130790609	-2.5239992435808944	2.8508170738423182	0.0001163120897214	-0.0006423362287286	-0.0001172857352653
Na	3.9892475229008366	0.1315416560373503	4.6652329233531544	-0.0001881484415416	-0.0000791077445680	-0.0004417383933027
Na	0.2260378045422699	-4.0811554050562444	5.1508273523944128	-0.0000194645952733	0.0000899201927551	0.0002774481477090
Na	5.5626938089186604	-2.9896269825010577	3.7558348882369947	0.0001497156708185	-0.0003521217235035	0.0002571968155346
Na	0.7640857335467368	-0.5287131194802599	5.5083027056846783	0.0002105442502943	-0.0002037564572954	-0.0004599778474577
8
REF_energy=-444.6581576068182358 charge=-1 Properties=species:S:1:pos:R:3:REF_forces:R:3
Na	-2.0025970765163632	5.3593779297664623	3.6749890574796202	0.0001336411905048	-0.0000994974503982	-0.0002576978835874
Na	3.8585277832502638	7.4398328961983795	1.0386184739731252	-0.0000584043376724	-0.0000687665658361	0.0000527891841863
Na	8.8960806796568761	2.9789339291018155	-0.1493390956198098	0.0000372100423215	-0.0000445676223042	0.0002895330392923
Na	-3.1112464315656538	7.8902561211508262	1.4890749703808510	0.0001070698661084	0.0001033427758106	0.0001357804199275
Na	0.5627438645584728	6.7325684384533275	1.9541819202989663	-0.0000811395973604	-0.0002048366209827	0.0000268190458352
Na	-5.1435156482993563	9.9124433856396355	-0.0616764374811029	-0.0000331275723272	0.0001310639977949	0.0000640154517099
Na	6.6662626260911955	9.2394394291133661	0.4891109879220658	-0.0000231890709041	0.0001401251547090	-0.0001638614272536
Na	7.2761463164489992	5.7758871698487999	0.2721108179754985	-0.0000820605206706	0.0000431363312066	-0.0001473778301101
8
REF_energy=-444.9538408427252989 charge=-1 Properties=species:S:1:pos:R:3:REF_forces:R:3
Na	-2.8669234645563511	-0.8297149634147922	5.3873433320455586	-0.0001852847095246	0.0006560945618663	0.0003439620239485
Na	-1.5836430853474415	1.6433880125765468	7.3238887387546603	0.0001011755320423	0.0000335314317032	-0.0002000795286214
Na	4.0247121408118725	1.2391531475221882	4.0562467052341660	-0.0003298478281286	0.0000707611672614	0.0000347856175932
Na	1.7559574744585600	2.5079838853422598	6.5338936138292532	0.0003616550425470	-0.0002240850407101	-0.0000222795681748
Na	-0.9179204800007008	-2.3209737821198568	2.8218553878138732	-0.0002559411409851	-0.0005841510396460	-0.0003075156437018
Na	0.5746145742289349	0.0874634319394697	4.5973592205118825	-0.0000093239217503	-0.0003169965823709	0.0001655676159508
Na	7.3348978620501057	2.1786905197555715	3.3201470978392820	0.0002269057646361	-0.0000158135576970	-0.0004243902800110
Na	10.4695401144050244	3.0305205145453331	2.5591622671023275	0.0000906612611633	0.0003806590595932	0.0004099497630166
8
REF_energy=-445.5878749377483246 charge=-1 Properties=species:S:1:pos:R:3:REF_forces:R:3
Na	19.0235606865461300	5.9895716934310537	0.9287579361303250	0.0000721788635778	0.0000977986588463	0.0001130994167846
Na	15.7787742759432401	4.7627744769637550	0.7988226584590465	0.0000601178941160	-0.0000622075378225	-0.0000579470143192
Na	16.3680007502179414	8.2647678381945404	-0.0924384418293687	-0.0000031796236743	-0.0000688119452711	0.0000560171546441
Na	19.7089430301110120	9.0124414980724961	-0.5184414034474709	0.0000209335483723	-0.0000965840994398	0.0000408654107467
Na	17.5680625044564316	8.6669506615703522	-3.3033197995225128	-0.0000491628903817	-0.0000355190438668	-0.0001197870602021
Na	21.1266657133674371	8.5617149757569830	-3.7848725984753493	0.0000599093644412	0.0000088632595633	-0.0000797673305535
Na	16.3434619241869292	5.5671518205960764	-2.5320070367415983	0.0000060951020603	0.0001306566681548	-0.0000922733093374
Na	19.7637786709539611	5.6572150894347368	-2.3963168395062704	-0.0001668922585116	0.0000258040398359	0.0001397927322368
8
REF_energy=-440.3809458930070377 charge=1 Properties=species:S:1:pos:R:3:REF_forces:R:3
Na	2.2934098101369993	2.5187444244688035	2.5187444244110515	-0.0000787651928149	0.0000008244308119	0.0000008246393223
Na	3.6390535254477796	5.1695797328253326	5.1695797330751398	0.0000377363067147	-0.0002037499919995	-0.0002037501735692
Na	5.7024800413946908	3.1064863998329724	3.1064863999387979	-0.0001267959024376	0.0002405012856992	0.0002405010802315
Na	3.0367231221640330	5.7717248520439188	1.7643184901972655	0.0000908411233754	-0.0001488532452627	0.0001424945913416
Na	6.2894171367714531	6.5161163457893947	2.5188934915340808	-0.0000590255005232	0.0000374544301119	0.0000118955580154
Na	3.0367231214143682	1.7643184905319167	5.7717248524202818	0.0000908415284623	0.0001424947085881	-0.0001488532216688
Na	6.2894171372936301	2.5188934911157630	6.5161163453565498	-0.0000590257964737	0.0000118957028671	0.0000374543612282
Na	7.0444270777434346	5.7712169327949105	5.7712169324697626	0.0001041934336970	-0.0000805673208159	-0.0000805668349010
8
REF_energy=-440.5968197161183184 charge=1 Properties=species:S:1:pos:R:3:REF_forces:R:3
Na	3.2530815210279269	5.4351832566650309	-1.5025433957021510	0.0000468095992399	0.0000004969597330	0.0000271922627502
Na	1.2365303168176238	2.7800820809814040	-0.2470974609576811	0.0000027893185714	0.0000168312219385	0.0000048812502456
Na	5.9106032677133769	5.8410445509781725	2.2206599088132846	-0.0000355318052042	0.0000403201772020	-0.0000245912066436
Na	2.4595283370143926	5.3701699151792832	1.9005412876772017	-0.0000049961071853	-0.0000724699938297	-0.0000083296244261
Na	4.3361443280623559	3.2568520957676590	4.0993086438990574	0.0000231439526749	-0.0000060029654511	-0.0000072615623913
Na	4.7235509385453218	3.0120544611025206	0.5455756550916800	0.0000237090334821	-0.0000172777664991	-0.0000206983604340
Na	2.9188885237559052	0.4448247686432601	2.1155958557472783	-0.0000316213787766	0.0000415205999979	-0.0000098306467332
Na	0.7035525824214554	2.7516936567827996	3.4398868760094228	-0.0000243026128023	-0.0000034182330915	0.0000386378876322
8
REF_energy=-445.0172471085627990 charge=-1 Properties=species:S:1:pos:R:3:REF_forces:R:3
Na	1.1567151466989680	6.6356906918062935	4.0542262508490365	-0.0000070213047486	-0.0000216605934733	-0.0000190052617451
Na	3.0827662972040910	0.8152842143065047	-4.4323584042058526	-0.0001846122950902	0.0000521111513946	-0.0002328609733421
Na	4.9971534963561961	1.6158112804575360	1.1707186746817206	0.0001035219425193	-0.0000869046982411	-0.0000437144544132
Na	-0.1978808732422306	8.9002157312134091	6.1055738433462468	-0.0000600826526509	0.0000234650578677	-0.0000125259545881
Na	7.3707991779847175	-0.9643881396052537	0.4635095451016696	-0.0001584231287923	0.0000556316838545	-0.0001693891159803
Na	2.8376090715978943	2.5114553099919279	-1.2928305265727340	-0.0000043932240535	0.0001014003965539	0.0001403207427688
Na	5.2437399979839157	-0.1102960276631997	-2.0128922634816302	0.0002816608367996	-0.0001518472386116	0.0003383048691323
Na	2.5959495934499279	4.2346077374800224	1.8885673655142512	0.0000293498260166	0.0000278042406553	-0.0000011298518323
8
REF_energy=-445.2072910177836889 charge=-1 Properties=species:S:1:pos:R:3:REF_forces:R:3
Na	4.2893542094756230	0.3792973776591456	0.7728281651642535	-0.0000173657066593	0.0001316128852142	0.0003793645367544
Na	1.0427174815427320	2.1300547062520794	0.9325553367583619	-0.0004041466105636	-0.0002049103517121	-0.0002914041485928
Na	6.6049598930695153	3.0526408217157335	1.4008998863106967	-0.0000419622934066	-0.0000958336989726	-0.0002897038377001
Na	1.5668926046118454	5.6743511569508511	1.5020578367659017	0.0000567736578256	0.0003984741854530	-0.0000301669693537
Na	3.5892399112128381	3.2762058195451962	2.9051783120641490	0.0001450397906257	0.0000416160972953	0.0004169906475982