8
Lattice="12.0 0.0 0.0 0.0 12.0 0.0 0.0 0.0 12.0" Properties=species:S:1:pos:R:3:tags:I:1:forces:R:3 unique_id=3be986582b914b9d88fe07acec971a71 key_value_pairs="_JSON {\"extinct\": 0, \"origin\": \"RattleMutation\", \"sigma_E_pa\": 0.046297942352756964, \"sigma_F_mean\": 9.347032446395369e-06, \"raw_score\": 444.561333527335, \"generation\": 0, \"relaxed\": 1, \"gaid\": 28}" data="_JSON {\"parents\": [28]}" confid=28 relax_id=30 looks_like=0 n_paired=6 energy=-444.561333527335 pbc="F F F"
Na       4.23763859       8.45211414       2.79842070        0       0.00001979      -0.00001352       0.00000665
Na       5.23503973       3.08908229       3.94212153        1       0.00001990       0.00001469      -0.00002040
Na       7.88610663       5.78717537       2.81997311        2      -0.00001739       0.00000144      -0.00002669
Na       7.32998841       6.04489905       5.93758834        3      -0.00002042      -0.00004017       0.00000975
Na       4.66968454       3.26101897       7.20473926        4       0.00000208       0.00001663      -0.00001053
Na       3.49750322       5.39977472       9.49452905        5      -0.00000896      -0.00000170       0.00001895
Na       6.96474852       3.31929147       9.45649847        6       0.00000860       0.00002422       0.00000408
Na       6.40538528       6.91435700       8.44626480        7      -0.00000359      -0.00000157       0.00001818
8
Lattice="12.0 0.0 0.0 0.0 12.0 0.0 0.0 0.0 12.0" Properties=species:S:1:pos:R:3:tags:I:1:forces:R:3 unique_id=62d6ed1286ee49f999c8cda130189b46 key_value_pairs="_JSON {\"extinct\": 0, \"origin\": \"RattleMutation\", \"sigma_E_pa\": 0.04629789894352117, \"sigma_F_mean\": 1.1633163358729722e-05, \"raw_score\": 444.56133318794963, \"generation\": 0, \"relaxed\": 1, \"gaid\": 128}" data="_JSON {\"parents\": [128]}" confid=128 relax_id=130 looks_like=0 n_paired=0 energy=-444.56133318794963 pbc="F F F"
Na       6.96474852       3.31929147       9.45649847        0      -0.00000134       0.00000286      -0.00000340
Na       5.35767108       2.69112099       3.97152752        1      -0.00000403       0.00002184       0.00001081
Na       3.68158217       5.97502908       6.43444754        2       0.00003600      -0.00000400      -0.00002295
Na       8.42578045       3.65393638       6.03068877        3      -0.00000094       0.00003153       0.00000220
Na       6.64290866       6.26493843       3.71372701        4      -0.00004132      -0.00003973      -0.00000056
Na       9.22592124       6.19433547       9.50044506        5      -0.00000813      -0.00000284      -0.00002690
Na       7.38030021       8.68938222       5.78514707        6      -0.00002509       0.00000971       0.00004365
Na       9.45486931       7.07048207       4.23911237        7       0.00004484      -0.00001937      -0.00000286
8
Lattice="12.0 0.0 0.0 0.0 12.0 0.0 0.0 0.0 12.0" Properties=species:S:1:pos:R:3:tags:I:1:forces:R:3 unique_id=ba0cd0080ee14a1982c10ccd09127ac0 key_value_pairs="_JSON {\"extinct\": 0, \"origin\": \"RattleMutation\", \"sigma_E_pa\": 0.0462977617871807, \"sigma_F_mean\": 9.072430669917935e-06, \"raw_score\": 444.56133505378, \"generation\": 0, \"relaxed\": 1, \"gaid\": 22}" data="_JSON {\"parents\": [22]}" confid=22 relax_id=24 looks_like=0 n_paired=6 energy=-444.56133505378 pbc="F F F"
Na       4.10466706       8.24024179       9.47924395        0       0.00001586       0.00001093       0.00000248
Na       5.71436491       2.62085331       7.38346092        1      -0.00000446       0.00001772       0.00001162
Na       2.17281380       5.74156413       8.20155442        2      -0.00000702      -0.00003533       0.00000602
Na       3.37631191       7.77536050       5.93159935        3      -0.00001316       0.00002196       0.00000283
Na       4.23763859       8.45211414       2.79842070        4       0.00003195      -0.00001503      -0.00000326
Na       5.23503973       3.08908229       3.94212153        5       0.00001065       0.00000432      -0.00001758
Na       7.88610663       5.78717537       2.81997311        6      -0.00000810       0.00000018      -0.00002610
Na       6.55205336       6.20950839       5.66117969        7      -0.00002571      -0.00000476       0.00002399
8
Lattice="12.0 0.0 0.0 0.0 12.0 0.0 0.0 0.0 12.0" Properties=species:S:1:pos:R:3:tags:I:1:forces:R:3 unique_id=b905015496ea4838a9221c89b5d4fe7b key_value_pairs="_JSON {\"extinct\": 0, \"origin\": \"RattleMutation\", \"sigma_E_pa\": 0.04629754094739978, \"sigma_F_mean\": 1.028628773527082e-05, \"raw_score\": 444.5613394901234, \"generation\": 0, \"relaxed\": 1, \"gaid\": 25}" data="_JSON {\"parents\": [25]}" confid=25 relax_id=27 looks_like=0 n_paired=7 energy=-444.5613394901234 pbc="F F F"
Na       4.63486079       3.45895916       6.86492314        0       0.00002568      -0.00000500      -0.00004685
Na       3.93271821       5.47981239       8.70509220        1      -0.00002180       0.00000704       0.00001900
Na       6.96474852       3.31929147       9.45649847        2      -0.00000155       0.00002295       0.00001386
Na       6.28321899       7.77185296       9.65408718        3       0.00001547      -0.00000323       0.00000598
Na       8.81752930       4.10233289       6.51549319        4      -0.00001560       0.00000670      -0.00002453
Na       6.64290866       6.26493843       3.71372701        5      -0.00000165      -0.00003257       0.00000562
Na       3.77756697       6.73728204       5.18816693        6      -0.00002774       0.00000179       0.00001453
Na       9.45486931       7.07048207       4.23911237        7       0.00002719       0.00000232       0.00001240
8
Lattice="12.0 0.0 0.0 0.0 12.0 0.0 0.0 0.0 12.0" Properties=species:S:1:pos:R:3:tags:I:1:forces:R:3 unique_id=6ad40b08fdeb479883962099d4c14e67 key_value_pairs="_JSON {\"extinct\": 0, \"origin\": \"CutAndSplicePairing\", \"sigma_E_pa\": 0.046297270227880084, \"sigma_F_mean\": 1.4049200976563727e-05, \"raw_score\": 444.5613418824675, \"generation\": 0, \"relaxed\": 1, \"gaid\": 104}" data="_JSON {\"parents\": [102, 81]}" confid=104 relax_id=105 looks_like=0 n_paired=1 energy=-444.5613418824675 pbc="F F F"
Na       3.49750322       5.39977472       9.49452905        0       0.00003000       0.00000924      -0.00002890
Na       6.96474852       3.31929147       9.45649847        1      -0.00002619       0.00002465       0.00000881
Na       6.61318953       7.63276484       7.80393562        2      -0.00000066      -0.00005727      -0.00003417
Na       8.72430884       3.86666893       6.69856218        3      -0.00000654       0.00004442      -0.00004169
Na       6.64290866       6.26493843       3.71372701        4       0.00000112      -0.00002018       0.00002305
Na       9.45486931       7.07048207       4.23911237        5       0.00001615      -0.00000529       0.00003176
Na       4.56027556       3.13517680       3.94839841        6       0.00000493       0.00001178       0.00000413
Na       3.77756697       6.73728204       5.18816693        7      -0.00001881      -0.00000734       0.00003700
8
Lattice="12.0 0.0 0.0 0.0 12.0 0.0 0.0 0.0 12.0" Properties=species:S:1:pos:R:3:tags:I:1:forces:R:3 unique_id=75ac69e72bba404080e8deb7e5a794b9 key_value_pairs="_JSON {\"extinct\": 0, \"origin\": \"RattleMutation\", \"sigma_E_pa\": 0.046296601127067676, \"sigma_F_mean\": 1.1177971373073205e-05, \"raw_score\": 444.5613547401569, \"generation\": 0, \"relaxed\": 1, \"gaid\": 81}" data="_JSON {\"parents\": [81]}" confid=81 relax_id=83 looks_like=0 n_paired=6 energy=-444.5613547401569 pbc="F F F"
Na       8.77246000       6.73053047       8.78860841        0       0.00001619       0.00001420      -0.00000371
Na       8.72430884       3.86666893       6.69856218        1      -0.00003048       0.00002102      -0.00002959
Na       6.64290866       6.26493843       3.71372701        2      -0.00000137      -0.00002519       0.00000409
Na       9.45486931       7.07048207       4.23911237        3       0.00002443      -0.00000808       0.00003423
Na       3.91010683       3.76053985       7.56821374        4      -0.00000946      -0.00002218      -0.00000376
Na       4.56027556       3.13517680       3.94839841        5       0.00000881       0.00002164       0.00001819
Na       5.50643042       6.07807836       7.50251595        6       0.00003656      -0.00000137      -0.00000728
Na       3.77756697       6.73728204       5.18816693        7      -0.00004469      -0.00000004      -0.00001216
8
Lattice="12.0 0.0 0.0 0.0 12.0 0.0 0.0 0.0 12.0" Properties=species:S:1:pos:R:3:tags:I:1:forces:R:3 unique_id=e24f5a9193724aa8b4944d9458e5cc97 key_value_pairs="_JSON {\"extinct\": 0, \"origin\": \"CutAndSplicePairing\", \"sigma_E_pa\": 0.04629644010980392, \"sigma_F_mean\": 1.3182067304566693e-05, \"raw_score\": 444.561354652718, \"generation\": 0, \"relaxed\": 1, \"gaid\": 102}" data="_JSON {\"parents\": [84, 81]}" confid=102 relax_id=103 looks_like=0 n_paired=5 energy=-444.561354652718 pbc="F F F"
Na       3.49750322       5.39977472       9.49452905        0       0.00003033       0.00000934      -0.00002919
Na       6.96474852       3.31929147       9.45649847        1      -0.00002657       0.00002423       0.00000959
Na       6.61318953       7.63276484       7.80393562        2      -0.00000508      -0.00005650      -0.00002802
Na       8.72430884       3.86666893       6.69856218        3      -0.00000954       0.00003162      -0.00003170
Na       9.14686291       7.09467055       4.83533367        4       0.00002079       0.00000848       0.00002202
Na       6.64290866       6.26493843       3.71372701        5       0.00000395      -0.00002053       0.00001680
Na       4.56027556       3.13517680       3.94839841        6       0.00000355       0.00001065       0.00000400
Na       3.77756697       6.73728204       5.18816693        7      -0.00001744      -0.00000729       0.00003650
8
Lattice="12.0 0.0 0.0 0.0 12.0 0.0 0.0 0.0 12.0" Properties=species:S:1:pos:R:3:tags:I:1:initial_charges:R:1:forces:R:3 unique_id=a323b663e05c4490a140e6db0ff58eea key_value_pairs="_JSON {\"origin\": \"StartingCandidateUnrelaxed\", \"relaxed\": 1, \"generation\": 0, \"extinct\": 0, \"gaid\": 10, \"sigma_E_pa\": 0.04629585153909217, \"sigma_F_mean\": 1.073715947227047e-05, \"raw_score\": 444.5613650907679}" confid=10 relax_id=20 looks_like=0 n_paired=12 energy=-444.5613650907679 pbc="F F F"
Na       5.95576405       6.68544930       4.55476860        0       0.00000000      -0.00000873       0.00001388      -0.00000760
Na       6.23323395       3.85488441       5.68476246        1       0.00000000       0.00000692      -0.00001665       0.00003230
Na       3.88158280       8.44786565       7.30660744        2       0.00000000       0.00004601      -0.00002038      -0.00000351
Na       7.73964432       6.57524832       8.35034338        3       0.00000000      -0.00003043       0.00003565      -0.00003362
Na       7.66500458       8.79164332       5.41980325        4       0.00000000      -0.00000631       0.00002407       0.00002085
Na       9.42310752       7.11273642       2.74850612        5       0.00000000      -0.00000406      -0.00000344      -0.00000281
Na       5.44261601       4.42377005       9.47602999        6       0.00000000      -0.00000893      -0.00000692      -0.00000887
Na       9.02491153       3.70267819       8.15057662        7       0.00000000       0.00000553      -0.00002622       0.00000325
8
Lattice="12.0 0.0 0.0 0.0 12.0 0.0 0.0 0.0 12.0" Properties=species:S:1:pos:R:3:tags:I:1:forces:R:3 unique_id=9a124abd2b744b3a857c274fffaefa16 key_value_pairs="_JSON {\"extinct\": 0, \"origin\": \"RattleMutation\", \"sigma_E_pa\": 0.04629575550124566, \"sigma_F_mean\": 1.2997690682036645e-05, \"raw_score\": 444.56136600811476, \"generation\": 0, \"relaxed\": 1, \"gaid\": 84}" data="_JSON {\"parents\": [84]}" confid=84 relax_id=86 looks_like=0 n_paired=5 energy=-444.56136600811476 pbc="F F F"
Na       3.49750322       5.39977472       9.49452905        0       0.00003068       0.00000253      -0.00001642
Na       6.96474852       3.31929147       9.45649847        1      -0.00002536       0.00002384       0.00001300
Na       6.61318953       7.63276484       7.80393562        2       0.00001345      -0.00004752      -0.00001222
Na       5.35767108       2.69112099       3.97152752        3       0.00001039       0.00001746       0.00001578
Na       4.27520704       5.96607989       5.82430301        4      -0.00001793      -0.00002079       0.00000927
Na       8.72430884       3.86666893       6.69856218        5      -0.00002896       0.00003150      -0.00004300
Na       6.64290866       6.26493843       3.71372701        6       0.00000172      -0.00001663       0.00001019
Na       9.14686291       7.09467055       4.83533367        7       0.00001601       0.00000960       0.00002341
8
Lattice="12.0 0.0 0.0 0.0 12.0 0.0 0.0 0.0 12.0" Properties=species:S:1:pos:R:3:tags:I:1:initial_charges:R:1:forces:R:3 unique_id=3bb65dba93ad49eabdd0c74b4cd6d7ac key_value_pairs="_JSON {\"origin\": \"StartingCandidateUnrelaxed\", \"relaxed\": 1, \"generation\": 0, \"extinct\": 0, \"gaid\": 11, \"sigma_E_pa\": 0.0462950542417881, \"sigma_F_mean\": 8.832907090826491e-06, \"raw_score\": 444.5613788167452}" confid=11 relax_id=21 looks_like=0 n_paired=12 energy=-444.5613788167452 pbc="F F F"
Na       3.91010683       3.76053985       7.56821374        0       0.00000000      -0.00002002      -0.00002222      -0.00000032
Na       8.77246000       6.73053047       8.78860841        1       0.00000000       0.00001264       0.00000807      -0.00001798
Na       4.56027556       3.13517680       3.94839841        2       0.00000000      -0.00000042       0.00001453       0.00001775
Na       5.50643042       6.07807836       7.50251595        3       0.00000000       0.00002437       0.00000144      -0.00001111
Na       7.38030021       8.68938222       5.78514707        4       0.00000000      -0.00003372       0.00000315       0.00001338
Na       6.49599188       6.07253814       3.22853915        5       0.00000000      -0.00000552      -0.00000104      -0.00000277
Na       3.77756697       6.73728204       5.18816693        6       0.00000000      -0.00001862       0.00000720      -0.00000965
Na       9.45486931       7.07048207       4.23911237        7       0.00000000       0.00004128      -0.00001114       0.00001071
