8
Properties=species:S:1:pos:R:3:REF_forces:R:3:forces_eV_A:R:3:forces_Ha_Bohr:R:3 REF_energy=-445.6854050421662 charge=-1 energy_eV=-35294.27241982181 pbc="F F F"
Na       5.08411818       5.00486667       3.54497454       0.00000281      -0.00000679      -0.00003676       0.00720091       0.00519553       0.01457962       0.00014004       0.00010104       0.00028353
Na       1.86374230       4.50788941      -1.76494509       0.00001897      -0.00000351      -0.00001122      -0.00528235       0.00186015      -0.01744384      -0.00010273       0.00003617      -0.00033923
Na       1.34905706       2.21859217       0.99141285       0.00001592       0.00001010       0.00002441      -0.00569229      -0.00408565      -0.00273843      -0.00011070      -0.00007945      -0.00005325
Na       5.01068096       4.72052075       0.01303632       0.00000524      -0.00000899      -0.00000439       0.00576780       0.00420914      -0.00565713       0.00011217       0.00008185      -0.00011001
Na       4.66731057       1.82559703       1.85829853      -0.00001147       0.00001616      -0.00000051       0.00483084      -0.00548591       0.00457982       0.00009394      -0.00010668       0.00008906
Na       3.83983406       1.68532384      -1.58258830       0.00000105       0.00001736      -0.00000528      -0.00005583      -0.00548416      -0.01766380      -0.00000109      -0.00010665      -0.00034351
Na       2.30120065       3.10436955       4.28319552      -0.00002367      -0.00000560       0.00001466      -0.00056408       0.00104217       0.01887744      -0.00001097       0.00002027       0.00036711
Na       2.06630450       5.53962780       1.61622106      -0.00000884      -0.00001873       0.00001910      -0.00470196       0.00556288       0.00356287      -0.00009144       0.00010818       0.00006929
8
Properties=species:S:1:pos:R:3:REF_forces:R:3:forces_eV_A:R:3:forces_Ha_Bohr:R:3 REF_energy=-445.6158155967925 charge=-1 energy_eV=-35294.19900279483 pbc="F F F"
Na       4.18687157       3.00347238       2.64656999      -0.00002424      -0.00002879       0.00007532       0.00343261       0.00002745       0.00767423       0.00006675       0.00000053       0.00014924
Na       1.95993093       1.60830537       0.06324685       0.00001582       0.00003043       0.00006018      -0.00632046      -0.00927191      -0.00403483      -0.00012291      -0.00018031      -0.00007846
Na       2.61345792       6.51989009       2.90768701      -0.00001336      -0.00003986      -0.00000902      -0.00484186       0.01347531       0.00781217      -0.00009416       0.00026205       0.00015192
Na       5.30051960       5.75381992       0.85368696       0.00004398      -0.00007420       0.00001984       0.01110984       0.00428302      -0.00026413       0.00021605       0.00008329      -0.00000514
Na       4.77771853       3.05361033      -1.17883686      -0.00002297      -0.00003329      -0.00018046       0.00656582      -0.00267246      -0.01214469       0.00012768      -0.00005197      -0.00023618
Na       0.73471991       3.66162234       2.48905078      -0.00004584       0.00003746      -0.00006314      -0.00873263      -0.00216736       0.00657270      -0.00016982      -0.00004215       0.00012782
Na       5.14479545       0.06606459       0.73742301       0.00005755       0.00009588       0.00002955       0.00717034      -0.01354013      -0.00067558       0.00013944      -0.00026331      -0.00001314
Na       2.03733730       5.10157711      -0.49094372      -0.00001094       0.00001237       0.00006773      -0.00712468       0.01022884      -0.00616511      -0.00013855       0.00019892      -0.00011989
8
Properties=species:S:1:pos:R:3:REF_forces:R:3:forces_eV_A:R:3:forces_Ha_Bohr:R:3 REF_energy=-445.60702004270456 charge=-1 energy_eV=-35294.18613540114 pbc="F F F"
Na       7.29795458       3.58031559       1.91097362       0.00005158      -0.00000458      -0.00005155       0.01474139      -0.00028420       0.00375059       0.00028667      -0.00000553       0.00007294
Na       1.14860292       3.36770178      -2.35601383      -0.00005311       0.00001508       0.00008339      -0.00897254      -0.00156059      -0.01266531      -0.00017449      -0.00003035      -0.00024630
Na       1.60666500       1.69705573       0.67278403       0.00007369      -0.00004447       0.00000612      -0.00455679      -0.00923844      -0.00018749      -0.00008862      -0.00017966      -0.00000365
Na       4.48655791       5.61719256       2.25591420      -0.00001236      -0.00002128       0.00002655       0.00384379       0.00985234       0.00355908       0.00007475       0.00019160       0.00006921
Na       4.38355783       1.79097262       2.59396405      -0.00008432       0.00004902       0.00000703       0.00211115      -0.01023964       0.00531355       0.00004106      -0.00019913       0.00010333
Na       4.46410735       3.43652985      -0.56766439       0.00004339      -0.00000829       0.00003992       0.00690296      -0.00026926      -0.00883913       0.00013424      -0.00000524      -0.00017189
Na       1.66092554       3.87092008       3.45995910      -0.00003923      -0.00000594      -0.00012468      -0.00889629      -0.00019978       0.01139461      -0.00017301      -0.00000389       0.00022159
Na       1.71288913       5.51758215       0.33248220       0.00002036       0.00002047       0.00001322      -0.00482481       0.01134664      -0.00217621      -0.00009383       0.00022066      -0.00004232
8
Properties=species:S:1:pos:R:3:REF_forces:R:3:forces_eV_A:R:3:forces_Ha_Bohr:R:3 REF_energy=-445.5941097063061 charge=-1 energy_eV=-35294.173064058115 pbc="F F F"
Na       2.14461176       2.14461176       3.14362426       0.00008728       0.00008728       0.00000602      -0.00283734      -0.00283734       0.01203463      -0.00005518      -0.00005518       0.00023404
Na       5.46251796       2.79530690       2.57499789      -0.00007416      -0.00003867       0.00002207       0.00787232      -0.00689167       0.00686569       0.00015309      -0.00013402       0.00013352
Na       2.79530690       5.46251796       2.57499788      -0.00003867      -0.00007416       0.00002207      -0.00689167       0.00787232       0.00686569      -0.00013402       0.00015309       0.00013352
Na       6.20917681       6.20917682       2.04356697      -0.00001174      -0.00001174      -0.00005785       0.00874749       0.00874749       0.00146267       0.00017011       0.00017011       0.00002844
Na       4.56807829       4.56807829      -0.62586732       0.00003768       0.00003768      -0.00003470       0.00313512       0.00313512      -0.01216071       0.00006097       0.00006097      -0.00023649
Na       1.25012354       3.91409069      -0.06283560       0.00000999      -0.00001861       0.00005816      -0.00803759       0.00672620      -0.00670848      -0.00015631       0.00013080      -0.00013046
Na       3.91409070       1.25012354      -0.06283560      -0.00001861       0.00000999       0.00005816       0.00672620      -0.00803759      -0.00670848       0.00013080      -0.00015631      -0.00013046
Na       0.50133482       0.50133482       0.48131124       0.00000823       0.00000823      -0.00007395      -0.00869485      -0.00869485      -0.00164507      -0.00016909      -0.00016909      -0.00003199
8
Properties=species:S:1:pos:R:3:REF_forces:R:3:forces_eV_A:R:3:forces_Ha_Bohr:R:3 REF_energy=-445.5878749377483 charge=-1 energy_eV=-35294.16836176734 pbc="F F F"
Na      19.02356069       5.98957169       0.92875794       0.00007218       0.00009780       0.00011310       0.00642661      -0.00400713       0.00801067       0.00012498      -0.00007793       0.00015578
Na      15.77877428       4.76277448       0.79882266       0.00006012      -0.00006221      -0.00005795      -0.00785837      -0.00942737       0.00593136      -0.00015282      -0.00018333       0.00011535
Na      16.36800075       8.26476784      -0.09243844      -0.00000318      -0.00006881       0.00005602      -0.00904450       0.00873998       0.00614574      -0.00017589       0.00016997       0.00011952
Na      19.70894303       9.01244150      -0.51844140       0.00002093      -0.00009658       0.00004087       0.00642624       0.01014523       0.00693747       0.00012497       0.00019729       0.00013491
Na      17.56806250       8.66695066      -3.30331980      -0.00004916      -0.00003552      -0.00011979      -0.00575646       0.00860286      -0.00975910      -0.00011195       0.00016730      -0.00018978
Na      21.12666571       8.56171498      -3.78487260       0.00005991       0.00000886      -0.00007977       0.01072152       0.00312440      -0.00864672       0.00020850       0.00006076      -0.00016815
Na      16.34346192       5.56715182      -2.53200704       0.00000610       0.00013066      -0.00009227      -0.00532307      -0.00681548      -0.00781067      -0.00010352      -0.00013254      -0.00015189
Na      19.76377867       5.65721509      -2.39631684      -0.00016689       0.00002580       0.00013979       0.00336483      -0.01013850      -0.00203581       0.00006544      -0.00019716      -0.00003959
8
Properties=species:S:1:pos:R:3:REF_forces:R:3:forces_eV_A:R:3:forces_Ha_Bohr:R:3 REF_energy=-445.4939860538105 charge=-1 energy_eV=-35294.066513712794 pbc="F F F"
Na      17.55518371       1.48584581       1.17610045      -0.00007258      -0.00016313      -0.00030037      -0.01273877      -0.00099968       0.00147539      -0.00024773      -0.00001944       0.00002869
Na      20.24843718       2.35346681       3.35000614      -0.00029660       0.00000880       0.00019826       0.00329369       0.00276104       0.01294973       0.00006405       0.00005369       0.00025183
Na      22.21524486       2.99582629      -1.96197677      -0.00011236       0.00001492       0.00006418      -0.00072040       0.00660068      -0.01163773      -0.00001401       0.00012836      -0.00022632
Na      20.10503619      -0.97717696       1.53829776       0.00005605       0.00021173      -0.00018708       0.00268683      -0.01049255       0.00531083       0.00005225      -0.00020405       0.00010328
Na      19.83451284       3.99183039       0.35385346       0.00002616      -0.00016014       0.00028499      -0.00186261       0.01301461      -0.00068186      -0.00003622       0.00025309      -0.00001326
Na      22.61021917       1.33538181       1.06869197       0.00011597       0.00051137       0.00023595       0.00012910      -0.00004016       0.00225316       0.00000251      -0.00000078       0.00004382
Na      19.68963721       0.67307495      -1.45060131       0.00018752       0.00001809       0.00014729      -0.00234971      -0.00638696      -0.01096272      -0.00004569      -0.00012421      -0.00021319
Na      25.46979778       2.17128125      -0.87685290       0.00009585      -0.00044163      -0.00044322       0.01185795      -0.00257815       0.00119764       0.00023060      -0.00005014       0.00002329
8
Properties=species:S:1:pos:R:3:REF_forces:R:3:forces_eV_A:R:3:forces_Ha_Bohr:R:3 REF_energy=-445.24015773262283 charge=-1 energy_eV=-35293.79773156024 pbc="F F F"
Na       1.56291640       6.05606227       6.95377673       0.00009997       0.00010092       0.00058810      -0.00097153       0.00941529       0.00305923      -0.00001889       0.00018310       0.00005949
Na       1.99853640       2.87513839       6.05547879      -0.00027745       0.00044515       0.00014245       0.00012661      -0.00034243       0.00002945       0.00000246      -0.00000666       0.00000057
Na       3.28127392      -2.99920535       6.35227679      -0.00009148       0.00064134      -0.00024619       0.00427013       0.00079459       0.01428146       0.00008304       0.00001545       0.00027773
Na       2.26955721      -2.52399924       2.85081707       0.00011631      -0.00064234      -0.00011729      -0.00423326       0.00304824      -0.01359874      -0.00008232       0.00005928      -0.00026445
Na       3.98924752       0.13154166       4.66523292      -0.00018815      -0.00007911      -0.00044174       0.00759107       0.00648737      -0.00223819       0.00014762       0.00012616      -0.00004353
Na       0.22603780      -4.08115541       5.15082735      -0.00001946       0.00008992       0.00027745      -0.00764988      -0.01270895       0.00082841      -0.00014877      -0.00024715       0.00001611
Na       5.56269381      -2.98962698       3.75583489       0.00014972      -0.00035212       0.00025720       0.01231877      -0.00940338      -0.00521113       0.00023956      -0.00018287      -0.00010134
Na       0.76408573      -0.52871312       5.50830271       0.00021054      -0.00020376      -0.00045998      -0.01048290       0.00278128       0.00287879      -0.00020386       0.00005409       0.00005598
8
Properties=species:S:1:pos:R:3:REF_forces:R:3:forces_eV_A:R:3:forces_Ha_Bohr:R:3 REF_energy=-445.2259154957649 charge=-1 energy_eV=-35293.76340004294 pbc="F F F"
Na       7.26643785       4.03699693      -1.05435416      -0.00001713      -0.00020243      -0.00007183       0.01425651      -0.00078997      -0.00115911       0.00027724      -0.00001536      -0.00002254
Na       1.21954906       4.37304851      -1.55174475      -0.00011020       0.00013768      -0.00002223      -0.00804981       0.00143591      -0.00394619      -0.00015654       0.00002792      -0.00007674
Na       0.38934979       3.51565567       1.80202409       0.00009231      -0.00023538       0.00004418      -0.00707728       0.00187275      -0.00571346      -0.00013763       0.00003642      -0.00011111
Na       3.26650955       2.82614321       3.97057038       0.00003907       0.00013922       0.00011250       0.00751111      -0.00210862       0.00490067       0.00014607      -0.00004101       0.00009530
Na       6.45813513       3.13575916       2.40874558      -0.00004729       0.00009096       0.00005725       0.00629741      -0.00180027       0.00746967       0.00012247      -0.00003501       0.00014526
Na       3.86589373       3.76774615       0.39780474       0.00020823      -0.00011589       0.00008055      -0.00026690      -0.00050085      -0.00028320      -0.00000519      -0.00000974      -0.00000551
Na      -0.02015481       2.62906334       5.16465516      -0.00013234       0.00000492      -0.00006361      -0.01113048      -0.00335384       0.01337745      -0.00021645      -0.00006522       0.00026015
Na       4.53368257       4.67429303      -3.12015261      -0.00003265       0.00018091      -0.00013681      -0.00200315       0.00464909      -0.01407712      -0.00003896       0.00009041      -0.00027376
8
Properties=species:S:1:pos:R:3:REF_forces:R:3:forces_eV_A:R:3:forces_Ha_Bohr:R:3 REF_energy=-445.2072910177837 charge=-1 energy_eV=-35293.738700757654 pbc="F F F"
Na       4.28935421       0.37929738       0.77282817      -0.00001737       0.00013161       0.00037936       0.01077954      -0.00772096      -0.00028082       0.00020963      -0.00015015      -0.00000546
Na       1.04271748       2.13005471       0.93255534      -0.00040415      -0.00020491      -0.00029140      -0.00969138       0.00919079      -0.00153730      -0.00018847       0.00017873      -0.00002990
Na       6.60495989       3.05264082       1.40089989      -0.00004196      -0.00009583      -0.00028970       0.01143745      -0.00412841      -0.00346306       0.00022242      -0.00008028      -0.00006735
Na       1.56689260       5.67435116       1.50205784       0.00005677       0.00039847      -0.00003017      -0.01328932      -0.00204461      -0.00075079      -0.00025844      -0.00003976      -0.00001460
Na       3.58923991       3.27620582       2.90517831       0.00014504       0.00004162       0.00041699      -0.00007619      -0.00183815       0.02173331      -0.00000148      -0.00003575       0.00042265
Na       5.16673102       6.29269853       1.32652349      -0.00016776      -0.00007964      -0.00039410       0.01031974       0.00180247      -0.00357796       0.00020069       0.00003505      -0.00006958
Na       1.46895590      -0.75983214      -1.02569530       0.00033471       0.00015150      -0.00008957      -0.00791121      -0.01307943      -0.01027580      -0.00015385      -0.00025435      -0.00019983
Na       2.84152228       8.83520966       0.50968526       0.00009471      -0.00034282       0.00029860      -0.00329896       0.01654646      -0.00380375      -0.00006415       0.00032178      -0.00007397
8
Properties=species:S:1:pos:R:3:REF_forces:R:3:forces_eV_A:R:3:forces_Ha_Bohr:R:3 REF_energy=-445.19007026462214 charge=-1 energy_eV=-35293.72179100373 pbc="F F F"
Na       8.06603450       2.89152469       5.07702317      -0.00006329      -0.00019043       0.00003275       0.00564098      -0.00009444       0.00974212       0.00010970      -0.00000184       0.00018945
Na       2.77056401       7.24180854       6.34570427      -0.00011697      -0.00031229      -0.00001491      -0.01469893       0.00600168      -0.00066828      -0.00028585       0.00011671      -0.00001300
Na       5.29445725       8.04400851       8.54877448       0.00013141       0.00013107      -0.00017306       0.00756345       0.00362673       0.01081370       0.00014709       0.00007053       0.00021029
Na       6.68077044       0.61884041       2.70763929       0.00016732      -0.00011898       0.00014737       0.00681163      -0.01586036       0.00019285       0.00013247      -0.00030843       0.00000375
Na       6.06765651       5.95913649       5.67875124       0.00011618      -0.00007343       0.00008277       0.00745166       0.00257741       0.00297047       0.00014491       0.00005012       0.00005777
Na       3.05673802       5.30373835       3.39162253      -0.00006398       0.00016525      -0.00003097      -0.01085054      -0.00391708      -0.00071128      -0.00021101      -0.00007617      -0.00001383
Na       3.83959690       2.18070159       1.33077951      -0.00003127       0.00008878      -0.00005031      -0.01198579      -0.00297990      -0.00995978      -0.00023309      -0.00005795      -0.00019369
Na       6.20335097       4.25984314       2.64723401      -0.00013939       0.00031003       0.00000635       0.01033121       0.00999539      -0.01095988       0.00020091       0.00019438      -0.00021314
8
Properties=species:S:1:pos:R:3:REF_forces:R:3:forces_eV_A:R:3:forces_Ha_Bohr:R:3 REF_energy=-445.17183212104857 charge=-1 energy_eV=-35293.700568163484 pbc="F F F"
Na       6.20145163       3.95802908       0.06176357       0.00002144       0.00003970       0.00004383       0.00994715       0.01155768       0.00211012       0.00019344       0.00022476       0.00004104
Na       0.38949605       3.37153959       2.08004575       0.00004599       0.00004007       0.00003974      -0.00993564      -0.01140426      -0.00202650      -0.00019322      -0.00022178      -0.00003941
Na       3.14913369       2.04275323       0.36769549      -0.00006554       0.00004885      -0.00003664      -0.00521174       0.00084732       0.00197587      -0.00010135       0.00001648       0.00003842
Na       3.40973929       8.46616609       3.28071377       0.00011953       0.00010307       0.00001095       0.01199022       0.01089380       0.00122869       0.00023317       0.00021185       0.00002389
Na       6.04068909       0.76761168      -1.37964596       0.00001035      -0.00000507      -0.00001187       0.01343101      -0.00298953      -0.00607808       0.00026119      -0.00005814      -0.00011820
Na       3.44269352       5.29226566       1.77605290      -0.00003674      -0.00013260      -0.00006261       0.00513391      -0.00092777      -0.00204128       0.00009984      -0.00001804      -0.00003970
Na       0.54515095       6.56228593       3.51901485      -0.00012128      -0.00004727       0.00001746      -0.01356361       0.00288141       0.00601837      -0.00026377       0.00005603       0.00011704
Na       3.16962175      -1.12829193      -1.13968798       0.00002625      -0.00004675      -0.00000085      -0.01184475      -0.01088954      -0.00121784      -0.00023034      -0.00021177      -0.00002368
8
Properties=species:S:1:pos:R:3:REF_forces:R:3:forces_eV_A:R:3:forces_Ha_Bohr:R:3 REF_energy=-445.16577852338327 charge=-1 energy_eV=-35293.70147256111 pbc="F F F"
Na       8.95394147       7.61929966       3.15048168       0.00000059      -0.00003384       0.00004397       0.00983268       0.00816483      -0.00071654       0.00019122       0.00015878      -0.00001393
Na       6.66415661       5.43177205       1.74931054       0.00004873       0.00002323       0.00004058       0.00177058      -0.00026733      -0.00308851       0.00003443      -0.00000520      -0.00006006
Na       6.36211860       6.17383638       5.19347866      -0.00006479       0.00004442       0.00004811       0.00017816       0.00031324       0.00140828       0.00000346       0.00000609       0.00002739
Na       3.62852927       4.46392498       6.64855425       0.00006034      -0.00006157      -0.00010669      -0.00155194       0.00016011       0.00304925      -0.00003018       0.00000311       0.00005930
Na       5.53722226       6.50996900       8.68662151      -0.00001251       0.00000556      -0.00009607       0.00401766       0.00570009       0.00999587       0.00007813       0.00011085       0.00019439
Na       3.93181895       3.71974865       3.20437412       0.00004607       0.00002960       0.00009989      -0.00022376      -0.00012522      -0.00117093      -0.00000435      -0.00000244      -0.00002277
Na       4.77081318       3.36672456      -0.28356653      -0.00009376      -0.00002915      -0.00003099      -0.00424659      -0.00572521      -0.01019842      -0.00008258      -0.00011134      -0.00019833
Na       1.32572944       2.29316968       5.24247248       0.00001533       0.00002175       0.00000119      -0.00978841      -0.00830789       0.00079562      -0.00019035      -0.00016156       0.00001547
8
Properties=species:S:1:pos:R:3:REF_forces:R:3:forces_eV_A:R:3:forces_Ha_Bohr:R:3 REF_energy=-445.1587532376281 charge=-1 energy_eV=-35293.690598183755 pbc="F F F"
Na       6.97715268       2.24338190       5.54917350       0.00003892       0.00000093      -0.00002575       0.00858101      -0.00943119       0.00959027       0.00016687      -0.00018341       0.00018650
Na       1.56277199       7.39909905      -0.38045862       0.00002745      -0.00000986      -0.00002126      -0.00078384       0.01066422       0.00130463      -0.00001524       0.00020739       0.00002537
Na       2.64299760       1.55754793      -0.00240952      -0.00002808       0.00000490      -0.00005968       0.00476356      -0.01001231       0.00460688       0.00009264      -0.00019471       0.00008959
Na       0.40493411       1.22588127      -2.86391546      -0.00000441      -0.00001248       0.00002908      -0.00789012      -0.00807411      -0.01090214      -0.00015344      -0.00015702      -0.00021201
Na       5.55296165       5.08692856       4.21078708      -0.00004129      -0.00001319       0.00002332      -0.00151794       0.01798819       0.00048353      -0.00002952       0.00034981       0.00000940
Na       4.78089447       1.92287186       2.73944790      -0.00000417       0.00003491       0.00001447      -0.00288777      -0.01108772      -0.00523988      -0.00005616      -0.00021562      -0.00010190
Na       3.29513457       4.82713249       1.34614712      -0.00002058      -0.00001033       0.00003190       0.00220346       0.00497598       0.00358732       0.00004285       0.00009677       0.00006976
Na       0.96540121       4.34394417      -1.63916655       0.00003215       0.00000512       0.00000792      -0.00273210       0.00331016      -0.00287166      -0.00005313       0.00006437      -0.00005584
8
Properties=species:S:1:pos:R:3:REF_forces:R:3:forces_eV_A:R:3:forces_Ha_Bohr:R:3 REF_energy=-445.1510461027833 charge=-1 energy_eV=-35293.68985376187 pbc="F F F"
Na       3.69406743       0.20944554       5.11386631       0.00000803      -0.00001363      -0.00007256       0.00007931      -0.00001230      -0.00014279       0.00000154      -0.00000024      -0.00000278
Na       0.35452067       0.20977023       3.85263526      -0.00003752       0.00000210      -0.00001418      -0.00666532       0.00000212       0.00332266      -0.00012962       0.00000004       0.00006462
Na       6.96272921       0.20974137       4.49236745      -0.00001546       0.00000180       0.00001862       0.00296087       0.00000099      -0.00724492       0.00005758       0.00000002      -0.00014089
Na       4.31689888       0.20974111       1.84557307       0.00001467       0.00000183       0.00001261       0.00728800       0.00000106      -0.00305373       0.00014173       0.00000002      -0.00005939
Na       1.03496315       0.20981317       0.47288116       0.00001035       0.00000163       0.00002722      -0.00754420       0.00000210      -0.01497494      -0.00014671       0.00000004      -0.00029122
Na       4.95623890       0.20977115       8.45329129      -0.00001887       0.00000229      -0.00001675      -0.00335804       0.00000211       0.00661181      -0.00006530       0.00000004       0.00012858
Na       1.38424524       0.20974513       7.42444165      -0.00000208       0.00000245       0.00003305      -0.00793105       0.00000427       0.00801958      -0.00015423       0.00000008       0.00015596
Na       8.33616771       0.20981229       7.77391527       0.00004087       0.00000153       0.00001198       0.01504714       0.00000212       0.00758820       0.00029262       0.00000004       0.00014757
8
Properties=species:S:1:pos:R:3:REF_forces:R:3:forces_eV_A:R:3:forces_Ha_Bohr:R:3 REF_energy=-445.1245805621249 charge=-1 energy_eV=-35293.65315782004 pbc="F F F"
Na       3.59243837       7.05785590       4.80591145      -0.00002247      -0.00002220      -0.00014358      -0.00991846       0.01273742       0.00658318      -0.00019288       0.00024770       0.00012802
Na       2.01481997       5.85295236       1.67098364       0.00009721       0.00002431       0.00003154      -0.00870719       0.00551554      -0.00132570      -0.00016933       0.00010726      -0.00002578
Na       7.83682162       2.92447561       3.74963653       0.00027398      -0.00003819       0.00006328       0.00736086      -0.01049833      -0.00619913       0.00014315      -0.00020416      -0.00012055
Na       3.61612414       3.13896960      -0.20590453      -0.00016757      -0.00023081      -0.00029681       0.01457989      -0.00644695       0.00498958       0.00028353      -0.00012537       0.00009703
Na       4.95416577       4.39421967       2.71912295      -0.00003838      -0.00011422       0.00025719       0.00016157      -0.00443965      -0.00465954       0.00000314      -0.00008634      -0.00009061
Na       6.51103862       5.49262454       5.73090802      -0.00007811       0.00016845       0.00004161       0.00823006       0.00371720       0.01341813       0.00016005       0.00007229       0.00026094
Na       1.92560629       2.10551547      -3.19701308       0.00004570       0.00013897       0.00002056       0.00155214      -0.01089866      -0.01296201       0.00003018      -0.00021195      -0.00025207
Na       0.52675526       4.63545216      -1.36551020      -0.00011035       0.00007369       0.00002621      -0.01393443       0.00965434      -0.00102053      -0.00027098       0.00018775      -0.00001985
8
Properties=species:S:1:pos:R:3:REF_forces:R:3:forces_eV_A:R:3:forces_Ha_Bohr:R:3 REF_energy=-445.1156405724107 charge=-1 energy_eV=-35293.6527770239 pbc="F F F"
Na       3.11596923       2.38836576       5.26326204       0.00004904      -0.00058531      -0.00039049      -0.00725733      -0.00791331       0.00254987      -0.00014113      -0.00015389       0.00004959
Na       2.35099308       4.61374645      -0.65126858       0.00015803       0.00003553       0.00008534       0.00289002       0.00905431      -0.01291527       0.00005620       0.00017608      -0.00025116
Na       1.34188851       2.37309332       1.97510396      -0.00033703       0.00023580       0.00040313      -0.00947987      -0.00980280       0.00381370      -0.00018435      -0.00019063       0.00007416
Na       6.36773263       6.73712797       2.52096368       0.00022382       0.00002881      -0.00002164       0.00435932       0.00520328      -0.00544251       0.00008478       0.00010119      -0.00010584
Na       7.94970471       5.17447062       8.32725551       0.00015368       0.00045644       0.00027361       0.01216937       0.00829027       0.00564029       0.00023666       0.00016122       0.00010969
Na       5.26348721       2.87507609       8.13142750      -0.00018865      -0.00019922       0.00010091      -0.00519572      -0.00818432       0.00888425      -0.00010104      -0.00015916       0.00017277
Na       3.88458237       4.50595718       2.48847345      -0.00011544      -0.00002782      -0.00019831       0.00303898       0.00158978       0.00195362       0.00005910       0.00003092       0.00003799
Na       5.95547277       4.89236098       5.42277423       0.00005654       0.00005576      -0.00025256      -0.00047016       0.00155310      -0.00454958      -0.00000914       0.00003020      -0.00008848
8
Properties=species:S:1:pos:R:3:REF_forces:R:3:forces_eV_A:R:3:forces_Ha_Bohr:R:3 REF_energy=-445.098016359894 charge=-1 energy_eV=-35293.629457355884 pbc="F F F"
Na       4.81375826       0.35520864       6.98217891       0.00020148       0.00013075      -0.00012467      -0.00877147      -0.00596727       0.01267595      -0.00017058      -0.00011604       0.00024651
Na       2.44246809      -1.37290819       4.99994444      -0.00015241      -0.00010872       0.00022923       0.01336502      -0.00318798       0.00157893       0.00025991      -0.00006200       0.00003071
Na       7.72539722       1.83002109       5.67430936      -0.00011318      -0.00004261      -0.00018320       0.01710723       0.00343813       0.00156016       0.00033268       0.00006686       0.00003034