8
Properties=species:S:1:pos:R:3 confid=N/A element=Na charge=0 energy=-35306.32797791549 pbc="F F F"
Na       5.27066866       6.06614200       3.57139735
Na       6.71319801       5.67617127       6.86892918
Na       6.01957099       2.64012203       5.72457570
Na       2.95959300       3.41097263       3.88836004
Na       6.30868911       3.16267002       2.28008278
Na       2.14244775       6.46994486       5.06604419
Na       4.94417752       8.42114631       5.95066919
Na       3.50600923       4.13676878       7.35935311
8
Properties=species:S:1:pos:R:3:REF_forces:R:3 REF_energy=-445.6854050421662 charge=-1 pbc="F F F"
Na       5.08411818       5.00486667       3.54497454       0.00000281      -0.00000679      -0.00003676
Na       1.86374230       4.50788941      -1.76494509       0.00001897      -0.00000351      -0.00001122
Na       1.34905706       2.21859217       0.99141285       0.00001592       0.00001010       0.00002441
Na       5.01068096       4.72052075       0.01303632       0.00000524      -0.00000899      -0.00000439
Na       4.66731057       1.82559703       1.85829853      -0.00001147       0.00001616      -0.00000051
Na       3.83983406       1.68532384      -1.58258830       0.00000105       0.00001736      -0.00000528
Na       2.30120065       3.10436955       4.28319552      -0.00002367      -0.00000560       0.00001466
Na       2.06630450       5.53962780       1.61622106      -0.00000884      -0.00001873       0.00001910
8
Properties=species:S:1:pos:R:3:REF_forces:R:3 REF_energy=-445.6158155967925 charge=-1 pbc="F F F"
Na       4.18687157       3.00347238       2.64656999      -0.00002424      -0.00002879       0.00007532
Na       1.95993093       1.60830537       0.06324685       0.00001582       0.00003043       0.00006018
Na       2.61345792       6.51989009       2.90768701      -0.00001336      -0.00003986      -0.00000902
Na       5.30051960       5.75381992       0.85368696       0.00004398      -0.00007420       0.00001984
Na       4.77771853       3.05361033      -1.17883686      -0.00002297      -0.00003329      -0.00018046
Na       0.73471991       3.66162234       2.48905078      -0.00004584       0.00003746      -0.00006314
Na       5.14479545       0.06606459       0.73742301       0.00005755       0.00009588       0.00002955
Na       2.03733730       5.10157711      -0.49094372      -0.00001094       0.00001237       0.00006773
8
Properties=species:S:1:pos:R:3:REF_forces:R:3 REF_energy=-445.60702004270456 charge=-1 pbc="F F F"
Na       7.29795458       3.58031559       1.91097362       0.00005158      -0.00000458      -0.00005155
Na       1.14860292       3.36770178      -2.35601383      -0.00005311       0.00001508       0.00008339
Na       1.60666500       1.69705573       0.67278403       0.00007369      -0.00004447       0.00000612
Na       4.48655791       5.61719256       2.25591420      -0.00001236      -0.00002128       0.00002655
Na       4.38355783       1.79097262       2.59396405      -0.00008432       0.00004902       0.00000703
Na       4.46410735       3.43652985      -0.56766439       0.00004339      -0.00000829       0.00003992
Na       1.66092554       3.87092008       3.45995910      -0.00003923      -0.00000594      -0.00012468
Na       1.71288913       5.51758215       0.33248220       0.00002036       0.00002047       0.00001322
8
Properties=species:S:1:pos:R:3:REF_forces:R:3 REF_energy=-445.5941097063061 charge=-1 pbc="F F F"
Na       2.14461176       2.14461176       3.14362426       0.00008728       0.00008728       0.00000602
Na       5.46251796       2.79530690       2.57499789      -0.00007416      -0.00003867       0.00002207
Na       2.79530690       5.46251796       2.57499788      -0.00003867      -0.00007416       0.00002207
Na       6.20917681       6.20917682       2.04356697      -0.00001174      -0.00001174      -0.00005785
Na       4.56807829       4.56807829      -0.62586732       0.00003768       0.00003768      -0.00003470
Na       1.25012354       3.91409069      -0.06283560       0.00000999      -0.00001861       0.00005816
Na       3.91409070       1.25012354      -0.06283560      -0.00001861       0.00000999       0.00005816
Na       0.50133482       0.50133482       0.48131124       0.00000823       0.00000823      -0.00007395
8
Properties=species:S:1:pos:R:3:REF_forces:R:3 REF_energy=-445.5878749377483 charge=-1 pbc="F F F"
Na      19.02356069       5.98957169       0.92875794       0.00007218       0.00009780       0.00011310
Na      15.77877428       4.76277448       0.79882266       0.00006012      -0.00006221      -0.00005795
Na      16.36800075       8.26476784      -0.09243844      -0.00000318      -0.00006881       0.00005602
Na      19.70894303       9.01244150      -0.51844140       0.00002093      -0.00009658       0.00004087
Na      17.56806250       8.66695066      -3.30331980      -0.00004916      -0.00003552      -0.00011979
Na      21.12666571       8.56171498      -3.78487260       0.00005991       0.00000886      -0.00007977
Na      16.34346192       5.56715182      -2.53200704       0.00000610       0.00013066      -0.00009227
Na      19.76377867       5.65721509      -2.39631684      -0.00016689       0.00002580       0.00013979
8
Properties=species:S:1:pos:R:3:REF_forces:R:3 REF_energy=-445.4939860538105 charge=-1 pbc="F F F"
Na      17.55518371       1.48584581       1.17610045      -0.00007258      -0.00016313      -0.00030037
Na      20.24843718       2.35346681       3.35000614      -0.00029660       0.00000880       0.00019826
Na      22.21524486       2.99582629      -1.96197677      -0.00011236       0.00001492       0.00006418
Na      20.10503619      -0.97717696       1.53829776       0.00005605       0.00021173      -0.00018708
Na      19.83451284       3.99183039       0.35385346       0.00002616      -0.00016014       0.00028499
Na      22.61021917       1.33538181       1.06869197       0.00011597       0.00051137       0.00023595
Na      19.68963721       0.67307495      -1.45060131       0.00018752       0.00001809       0.00014729
Na      25.46979778       2.17128125      -0.87685290       0.00009585      -0.00044163      -0.00044322
8
Properties=species:S:1:pos:R:3:REF_forces:R:3 REF_energy=-445.24015773262283 charge=-1 pbc="F F F"
Na       1.56291640       6.05606227       6.95377673       0.00009997       0.00010092       0.00058810
Na       1.99853640       2.87513839       6.05547879      -0.00027745       0.00044515       0.00014245
Na       3.28127392      -2.99920535       6.35227679      -0.00009148       0.00064134      -0.00024619
Na       2.26955721      -2.52399924       2.85081707       0.00011631      -0.00064234      -0.00011729
Na       3.98924752       0.13154166       4.66523292      -0.00018815      -0.00007911      -0.00044174
Na       0.22603780      -4.08115541       5.15082735      -0.00001946       0.00008992       0.00027745
Na       5.56269381      -2.98962698       3.75583489       0.00014972      -0.00035212       0.00025720
Na       0.76408573      -0.52871312       5.50830271       0.00021054      -0.00020376      -0.00045998
8
Properties=species:S:1:pos:R:3:REF_forces:R:3 REF_energy=-445.2259154957649 charge=-1 pbc="F F F"
Na       7.26643785       4.03699693      -1.05435416      -0.00001713      -0.00020243      -0.00007183
Na       1.21954906       4.37304851      -1.55174475      -0.00011020       0.00013768      -0.00002223
Na       0.38934979       3.51565567       1.80202409       0.00009231      -0.00023538       0.00004418
Na       3.26650955       2.82614321       3.97057038       0.00003907       0.00013922       0.00011250
Na       6.45813513       3.13575916       2.40874558      -0.00004729       0.00009096       0.00005725
Na       3.86589373       3.76774615       0.39780474       0.00020823      -0.00011589       0.00008055
Na      -0.02015481       2.62906334       5.16465516      -0.00013234       0.00000492      -0.00006361
Na       4.53368257       4.67429303      -3.12015261      -0.00003265       0.00018091      -0.00013681
8
Properties=species:S:1:pos:R:3:REF_forces:R:3 REF_energy=-445.2072910177837 charge=-1 pbc="F F F"
Na       4.28935421       0.37929738       0.77282817      -0.00001737       0.00013161       0.00037936
Na       1.04271748       2.13005471       0.93255534      -0.00040415      -0.00020491      -0.00029140
Na       6.60495989       3.05264082       1.40089989      -0.00004196      -0.00009583      -0.00028970
Na       1.56689260       5.67435116       1.50205784       0.00005677       0.00039847      -0.00003017
Na       3.58923991       3.27620582       2.90517831       0.00014504       0.00004162       0.00041699
Na       5.16673102       6.29269853       1.32652349      -0.00016776      -0.00007964      -0.00039410
Na       1.46895590      -0.75983214      -1.02569530       0.00033471       0.00015150      -0.00008957
Na       2.84152228       8.83520966       0.50968526       0.00009471      -0.00034282       0.00029860
8
Properties=species:S:1:pos:R:3:REF_forces:R:3 REF_energy=-445.19007026462214 charge=-1 pbc="F F F"
Na       8.06603450       2.89152469       5.07702317      -0.00006329      -0.00019043       0.00003275
Na       2.77056401       7.24180854       6.34570427      -0.00011697      -0.00031229      -0.00001491
Na       5.29445725       8.04400851       8.54877448       0.00013141       0.00013107      -0.00017306
Na       6.68077044       0.61884041       2.70763929       0.00016732      -0.00011898       0.00014737
Na       6.06765651       5.95913649       5.67875124       0.00011618      -0.00007343       0.00008277
Na       3.05673802       5.30373835       3.39162253      -0.00006398       0.00016525      -0.00003097
Na       3.83959690       2.18070159       1.33077951      -0.00003127       0.00008878      -0.00005031
Na       6.20335097       4.25984314       2.64723401      -0.00013939       0.00031003       0.00000635
8
Properties=species:S:1:pos:R:3:REF_forces:R:3 REF_energy=-445.17183212104857 charge=-1 pbc="F F F"
Na       6.20145163       3.95802908       0.06176357       0.00002144       0.00003970       0.00004383
Na       0.38949605       3.37153959       2.08004575       0.00004599       0.00004007       0.00003974
Na       3.14913369       2.04275323       0.36769549      -0.00006554       0.00004885      -0.00003664
Na       3.40973929       8.46616609       3.28071377       0.00011953       0.00010307       0.00001095
Na       6.04068909       0.76761168      -1.37964596       0.00001035      -0.00000507      -0.00001187
Na       3.44269352       5.29226566       1.77605290      -0.00003674      -0.00013260      -0.00006261
Na       0.54515095       6.56228593       3.51901485      -0.00012128      -0.00004727       0.00001746
Na       3.16962175      -1.12829193      -1.13968798       0.00002625      -0.00004675      -0.00000085
8
Properties=species:S:1:pos:R:3:REF_forces:R:3 REF_energy=-445.16577852338327 charge=-1 pbc="F F F"
Na       8.95394147       7.61929966       3.15048168       0.00000059      -0.00003384       0.00004397
Na       6.66415661       5.43177205       1.74931054       0.00004873       0.00002323       0.00004058
Na       6.36211860       6.17383638       5.19347866      -0.00006479       0.00004442       0.00004811
Na       3.62852927       4.46392498       6.64855425       0.00006034      -0.00006157      -0.00010669
Na       5.53722226       6.50996900       8.68662151      -0.00001251       0.00000556      -0.00009607
Na       3.93181895       3.71974865       3.20437412       0.00004607       0.00002960       0.00009989
Na       4.77081318       3.36672456      -0.28356653      -0.00009376      -0.00002915      -0.00003099
Na       1.32572944       2.29316968       5.24247248       0.00001533       0.00002175       0.00000119
8
Properties=species:S:1:pos:R:3:REF_forces:R:3 REF_energy=-445.1587532376281 charge=-1 pbc="F F F"
Na       6.97715268       2.24338190       5.54917350       0.00003892       0.00000093      -0.00002575
Na       1.56277199       7.39909905      -0.38045862       0.00002745      -0.00000986      -0.00002126
Na       2.64299760       1.55754793      -0.00240952      -0.00002808       0.00000490      -0.00005968
Na       0.40493411       1.22588127      -2.86391546      -0.00000441      -0.00001248       0.00002908
Na       5.55296165       5.08692856       4.21078708      -0.00004129      -0.00001319       0.00002332
Na       4.78089447       1.92287186       2.73944790      -0.00000417       0.00003491       0.00001447
Na       3.29513457       4.82713249       1.34614712      -0.00002058      -0.00001033       0.00003190
Na       0.96540121       4.34394417      -1.63916655       0.00003215       0.00000512       0.00000792
8
Properties=species:S:1:pos:R:3:REF_forces:R:3 REF_energy=-445.1510461027833 charge=-1 pbc="F F F"
Na       3.69406743       0.20944554       5.11386631       0.00000803      -0.00001363      -0.00007256
Na       0.35452067       0.20977023       3.85263526      -0.00003752       0.00000210      -0.00001418
Na       6.96272921       0.20974137       4.49236745      -0.00001546       0.00000180       0.00001862
Na       4.31689888       0.20974111       1.84557307       0.00001467       0.00000183       0.00001261
Na       1.03496315       0.20981317       0.47288116       0.00001035       0.00000163       0.00002722
Na       4.95623890       0.20977115       8.45329129      -0.00001887       0.00000229      -0.00001675
Na       1.38424524       0.20974513       7.42444165      -0.00000208       0.00000245       0.00003305
Na       8.33616771       0.20981229       7.77391527       0.00004087       0.00000153       0.00001198
8
Properties=species:S:1:pos:R:3:REF_forces:R:3 REF_energy=-445.1245805621249 charge=-1 pbc="F F F"
Na       3.59243837       7.05785590       4.80591145      -0.00002247      -0.00002220      -0.00014358
Na       2.01481997       5.85295236       1.67098364       0.00009721       0.00002431       0.00003154
Na       7.83682162       2.92447561       3.74963653       0.00027398      -0.00003819       0.00006328
Na       3.61612414       3.13896960      -0.20590453      -0.00016757      -0.00023081      -0.00029681
Na       4.95416577       4.39421967       2.71912295      -0.00003838      -0.00011422       0.00025719
Na       6.51103862       5.49262454       5.73090802      -0.00007811       0.00016845       0.00004161
Na       1.92560629       2.10551547      -3.19701308       0.00004570       0.00013897       0.00002056
Na       0.52675526       4.63545216      -1.36551020      -0.00011035       0.00007369       0.00002621
8
Properties=species:S:1:pos:R:3:REF_forces:R:3 REF_energy=-445.1156405724107 charge=-1 pbc="F F F"
Na       3.11596923       2.38836576       5.26326204       0.00004904      -0.00058531      -0.00039049
Na       2.35099308       4.61374645      -0.65126858       0.00015803       0.00003553       0.00008534
Na       1.34188851       2.37309332       1.97510396      -0.00033703       0.00023580       0.00040313
Na       6.36773263       6.73712797       2.52096368       0.00022382       0.00002881      -0.00002164
Na       7.94970471       5.17447062       8.32725551       0.00015368       0.00045644       0.00027361
Na       5.26348721       2.87507609       8.13142750      -0.00018865      -0.00019922       0.00010091
Na       3.88458237       4.50595718       2.48847345      -0.00011544      -0.00002782      -0.00019831
Na       5.95547277       4.89236098       5.42277423       0.00005654       0.00005576      -0.00025256
8
Properties=species:S:1:pos:R:3:REF_forces:R:3 REF_energy=-445.098016359894 charge=-1 pbc="F F F"
Na       4.81375826       0.35520864       6.98217891       0.00020148       0.00013075      -0.00012467
Na       2.44246809      -1.37290819       4.99994444      -0.00015241      -0.00010872       0.00022923
Na       7.72539722       1.83002109       5.67430936      -0.00011318      -0.00004261      -0.00018320
Na      -1.14784151      -0.60891976       4.91669017       0.00016988      -0.00014029      -0.00010415
Na      -0.11272043      -3.67075583       3.99172025       0.00000502       0.00008961      -0.00013583
Na       4.74885235       1.68206928       3.79342515       0.00006902      -0.00010730       0.00019917
Na       1.52761031       1.89281217       5.23488017      -0.00020627       0.00011967       0.00023078
Na      -1.94406629       2.52712936       5.83067604       0.00002645       0.00005890      -0.00011132
8
Properties=species:S:1:pos:R:3:REF_forces:R:3 REF_energy=-445.03685206788373 charge=-1 pbc="F F F"
Na       8.48946266       8.41353747       2.10009946      -0.00027451       0.00027935       0.00022917
Na       0.65937722       3.35518772      -2.29798375      -0.00001878      -0.00010000      -0.00005317
Na      -1.20449114       0.34341779      -1.74161673      -0.00036887       0.00020538       0.00025505
Na       6.13230520       6.04922800       1.70707148       0.00003563      -0.00020105       0.00020209
Na       2.49713947       0.06220512       3.22425770       0.00013795      -0.00015399       0.00035462
Na       3.27827509       4.81184126      -0.46177377       0.00045630      -0.00017315      -0.00036299
Na       1.44090944       1.57698641       0.41113417      -0.00006008       0.00013259      -0.00024299
Na       4.17362700       3.07283616       2.33005973       0.00009237       0.00001087      -0.00038178
8
Properties=species:S:1:pos:R:3:REF_forces:R:3 REF_energy=-445.028229964709 charge=-1 pbc="F F F"
Na       4.77460806       2.91966133       4.62451798       0.00034376      -0.00021686       0.00017610
Na       1.63937515       6.22028672       0.73368753      -0.00043958      -0.00022461      -0.00064671
Na       5.52061052      -1.99053025      -3.30173912      -0.00007460       0.00045194      -0.00038368
Na       2.54354006       3.71090932      -1.58609598       0.00038758       0.00008804       0.00020048
Na       3.76057222       3.10147064       1.38290453       0.00010557      -0.00045216       0.00020429
Na       4.49358393       0.60813660      -1.41257080      -0.00013567      -0.00052789       0.00004491
Na       2.84900761       5.69668189       3.91617051       0.00013841       0.00001414       0.00056955
Na       0.94825634       8.55355134       3.59406970      -0.00032548       0.00086740      -0.00016494
8
Properties=species:S:1:pos:R:3:REF_forces:R:3 REF_energy=-445.0172471085628 charge=-1 pbc="F F F"
Na       1.15671515       6.63569069       4.05422625      -0.00000702      -0.00002166      -0.00001901
Na       3.08276630       0.81528421      -4.43235840      -0.00018461       0.00005211      -0.00023286
Na       4.99715350       1.61581128       1.17071867       0.00010352      -0.00008690      -0.00004371
Na      -0.19788087       8.90021573       6.10557384      -0.00006008       0.00002347      -0.00001253
Na       7.37079918      -0.96438814       0.46350955      -0.00015842       0.00005563      -0.00016939
Na       2.83760907       2.51145531      -1.29283053      -0.00000439       0.00010140       0.00014032
Na       5.24374000      -0.11029603      -2.01289226       0.00028166      -0.00015185       0.00033830
Na       2.59594959       4.23460774       1.88856737       0.00002935       0.00002780      -0.00000113
8
Properties=species:S:1:pos:R:3:REF_forces:R:3 REF_energy=-444.9888098449116 charge=-1 pbc="F F F"
Na       9.13436313       1.83618399      -1.93371803       0.00005236      -0.00000123      -0.00002738
Na      -0.83831848       2.17490218      -1.44347790       0.00002330      -0.00002234       0.00006511
Na       2.69085365       2.62537867      -0.66535389      -0.00011484       0.00001232       0.00011575
Na       4.40568900       5.99796436       5.09842260      -0.00030924      -0.00021293      -0.00006874
Na       1.15124724       5.45161426       4.20036259       0.00013087       0.00019394       0.00002199
Na       6.32257540       2.75850573      -0.40094913      -0.00002786       0.00009688       0.00005177
Na       0.00617604       3.82942512       1.41259978       0.00006872       0.00001188       0.00001493
Na       3.88867428       4.20429606       2.03451296       0.00017669      -0.00007852      -0.00017344
8
Properties=species:S:1:pos:R:3:REF_forces:R:3 REF_energy=-444.9638191649536 charge=-1 pbc="F F F"
Na       9.97305507       4.78045183       3.94971607      -0.00019531      -0.00006682       0.00023613
Na       1.42209854       4.41305097      -0.29834226       0.00011738      -0.00002560      -0.00025567
Na      -1.53193384      -1.38861594      -0.48895747       0.00005885       0.00032851       0.00000499
Na       4.38193754       6.00101480       0.85216198       0.00013466       0.00003559       0.00001245
Na       6.96226632       4.23852238       2.57052648       0.00006699       0.00020977      -0.00043076
Na       3.88075607       2.58224300       1.37951818       0.00041023      -0.00023085       0.00021333
Na       0.80047205       0.93193388       0.17366681      -0.00029862      -0.00004288       0.00007419
Na       1.93549587       7.81000135      -0.82253844      -0.00029418      -0.00020771       0.00014533
8
Properties=species:S:1:pos:R:3:REF_forces:R:3 REF_energy=-444.9597379765455 charge=-1 pbc="F F F"
Na      17.13248128       0.07500312       0.07500312       0.00000700      -0.00007777      -0.00007777
Na      18.68949855       2.24578989       2.24578989      -0.00005341       0.00002383       0.00002383
Na      20.61981383      -0.09189897      -0.09189897      -0.00006437       0.00020037       0.00020037
Na      14.98483667       1.96748774       1.96748774      -0.00004835      -0.00009026      -0.00009026
Na      22.17884179       2.20335296       2.20335296       0.00012959       0.00000929       0.00000929
Na      24.08995558      -0.12843167      -0.12843167      -0.00011950       0.00002886       0.00002886
Na      25.65910147       2.01917869       2.01917869       0.00012086      -0.00007827      -0.00007827
Na      27.78393195       0.09867839       0.09867839       0.00002819      -0.00001605      -0.00001605
8
Properties=species:S:1:pos:R:3:REF_forces:R:3 REF_energy=-444.95395674367313 charge=-1 pbc="F F F"
Na       8.06301266       3.27280927      -1.12409391      -0.00001306       0.00006720       0.00011746
Na       6.93891143       5.88325877       0.98466442      -0.00001606      -0.00003315      -0.00008841
Na       5.60265700       1.30548472      -2.42518233      -0.00005746      -0.00000945       0.00002424
Na       2.20865039       1.97547377      -1.59849497      -0.00004007      -0.00007392      -0.00001086
Na       4.47906230       4.00497975      -0.23107798       0.00005073       0.00012974       0.00007959
Na       3.67232269       6.82599441       1.99293439       0.00007181      -0.00001323      -0.00014493
Na       3.43789071       9.61209715       4.11697198       0.00000375       0.00008199       0.00003221
Na       3.13446744      12.25473726       6.13011514       0.00000036      -0.00014919      -0.00000930
8
Properties=species:S:1:pos:R:3:REF_forces:R:3 REF_energy=-444.9538408427253 charge=-1 pbc="F F F"
Na      -2.86692346      -0.82971496       5.38734333      -0.00018528       0.00065609       0.00034396
Na      -1.58364309       1.64338801       7.32388874       0.00010118       0.00003353      -0.00020008
Na       4.02471214       1.23915315       4.05624671      -0.00032985       0.00007076       0.00003479
Na       1.75595747       2.50798389       6.53389361       0.00036166      -0.00022409      -0.00002228
Na      -0.91792048      -2.32097378       2.82185539      -0.00025594      -0.00058415      -0.00030752
Na       0.57461457       0.08746343       4.59735922      -0.00000932      -0.00031700       0.00016557
Na       7.33489786       2.17869052       3.32014710       0.00022691      -0.00001581      -0.00042439
Na      10.46954011       3.03052051       2.55916227       0.00009066       0.00038066       0.00040995
8
Properties=species:S:1:pos:R:3:REF_forces:R:3 REF_energy=-444.92094011906516 charge=-1 pbc="F F F"
Na       2.78450221       3.83642458       2.31426238       0.00025230       0.00011546       0.00008541
Na       5.09380658       8.48534871      -0.79695929       0.00019136      -0.00000035      -0.00002749
Na      -0.31972209       1.94060679       3.27624120      -0.00000453       0.00001406       0.00001610
Na      -1.92515355      -0.48428366       4.85298896       0.00003671      -0.00018207       0.00000379
Na       2.17595607       7.00470178      -0.10671822      -0.00008887      -0.00006968      -0.00002460
Na       5.51566275       5.65937994       1.34801010      -0.00021822      -0.00006736       0.00014306
Na      -0.26148484       4.83378381       1.14193331      -0.00024522       0.00018995      -0.00010154
Na       8.30134084       7.46191187       0.40746951       0.00007647       0.00000000      -0.00009472
8
Properties=species:S:1:pos:R:3:REF_forces:R:3 REF_energy=-444.8990176197129 charge=-1 pbc="F F F"
Na       5.77626176       3.12176033       2.72634436       0.00014267      -0.00000622       0.00026915
Na       2.61365686       2.01486605       1.71492145       0.00006667       0.00013010      -0.00029042
Na      -0.70588324       0.89714825       0.60319688       0.00007933       0.00026004      -0.00006445
Na       9.98001603       8.20533267       1.08732039       0.00007504      -0.00024943      -0.00006624
Na       4.20967191       4.88168192       0.19594596      -0.00038759       0.00007833       0.00001424
Na       1.05358241       3.77501950      -0.82078458      -0.00005313      -0.00005926      -0.00004127
Na      -3.25697430      -1.18407104       0.83107826       0.00006979      -0.00022194       0.00008104
Na       7.50845325       6.03139939       1.32959613       0.00000722       0.00006840       0.00009795
8
Properties=species:S:1:pos:R:3:REF_forces:R:3 REF_energy=-444.8874105741724 charge=-1 pbc="F F F"
Na       8.23143465      10.02896134       0.56217028       0.00004551      -0.00016763      -0.00009430
Na       5.17838665       8.95328003      -0.20187125       0.00015804       0.00013672      -0.00011936
Na       1.90526996       7.18730558       0.01554637      -0.00021396      -0.00000317      -0.00017049
Na       1.39148921       3.06099299       5.59646388      -0.00007560       0.00008481       0.00033302
Na      -0.53777342       7.71307351      -2.57919612      -0.00020415       0.00003385      -0.00029418
Na      -1.19183837       5.64292734       0.13856847       0.00032475      -0.00018986      -0.00006521
Na       1.09143023       4.87630463       2.82586269      -0.00000539      -0.00009696      -0.00011006
Na       2.57780878       9.25122844      -2.68616808      -0.00002920       0.00020223       0.00052058
8
Properties=species:S:1:pos:R:3:REF_forces:R:3 REF_energy=-444.86609760383084 charge=-1 pbc="F F F"
Na      15.04737532      -3.11774998       1.74002547      -0.00023704      -0.00019443      -0.00032639
Na      15.65967109       6.72744918      -1.31873346       0.00066769      -0.00023003       0.00018402
Na      15.56264141      -0.33293447      -0.17960047       0.00002409       0.00021491       0.00013121
Na      21.70708486      -3.00199242       0.82773693       0.00025076       0.00013546       0.00030470
Na      15.78992424       3.23703567      -0.83827321       0.00000698      -0.00063463      -0.00045824
Na      18.45464834      -2.62795952       1.05159867       0.00003811       0.00053682      -0.00006482
Na      13.99881870       1.22365565      -3.00186715      -0.00034053       0.00013117       0.00013361
Na      13.95748515       4.70130233      -3.50429450      -0.00041008       0.00004072       0.00009592
8
Properties=species:S:1:pos:R:3:REF_forces:R:3 REF_energy=-444.65815760681824 charge=-1 pbc="F F F"
Na      -2.00259708       5.35937793       3.67498906       0.00013364      -0.00009950      -0.00025770
Na       3.85852778       7.43983290       1.03861847      -0.00005840      -0.00006877       0.00005279
Na       8.89608068       2.97893393      -0.14933910       0.00003721      -0.00004457       0.00028953
Na      -3.11124643       7.89025612       1.48907497       0.00010707       0.00010334       0.00013578
Na       0.56274386       6.73256844       1.95418192      -0.00008114      -0.00020484       0.00002682
Na      -5.14351565       9.91244339      -0.06167644      -0.00003313       0.00013106       0.00006402
Na       6.66626263       9.23943943       0.48911099      -0.00002319       0.00014013      -0.00016386
Na       7.27614632       5.77588717       0.27211082      -0.00008206       0.00004314      -0.00014738
8
Properties=species:S:1:pos:R:3:REF_forces:R:3 REF_energy=-444.64554399198 charge=-1 pbc="F F F"
Na       0.81179693       3.20567091      -4.42560886      -0.00032693      -0.00013192      -0.00035886
Na       3.25286151       5.15031350      11.76921915      -0.00002758      -0.00010528       0.00013060
Na       2.68572168       3.37003257      -1.64628004      -0.00035266       0.00008232      -0.00012893
Na       6.93657421       2.38261283      -6.93606869       0.00021869      -0.00005553       0.00022148
Na       3.33213486       4.17316254       5.08647517       0.00027121      -0.00005435       0.00017664
Na       4.23916942       2.82139657      -5.17252238       0.00017499      -0.00000074       0.00005842
Na       3.29450586       3.72884475       1.72838264      -0.00011953       0.00021090      -0.00010433
Na       3.30309503       4.66563401       8.52040734       0.00016181       0.00005461       0.00000499
8
Properties=species:S:1:pos:R:3:REF_forces:R:3 REF_energy=-444.61802818043503 charge=-1 pbc="F F F"
Na       6.94563274      -1.79636670       7.17460084      -0.00008895       0.00000191      -0.00003057
Na      -2.31214846       0.73683142       3.81280231      -0.00005477      -0.00000167       0.00010575