8
Lattice="15.0 0.0 0.0 0.0 15.0 0.0 0.0 0.0 15.0" Properties=species:S:1:pos:R:3:tags:I:1:initial_charges:R:1:forces:R:3 unique_id=32627a35975a41c8b750d8e5ba71eeb3 key_value_pairs="_JSON {\"origin\": \"StartingCandidateUnrelaxed\", \"relaxed\": 1, \"generation\": 0, \"extinct\": 0, \"gaid\": 7, \"sigma_E_pa\": 0.046305237222478146, \"sigma_F_mean\": 7.923111475823667e-06, \"raw_score\": 444.5612198830014}" confid=7 relax_id=17 looks_like=0 n_paired=0 energy=-444.5612198830014 pbc="F F F"
Na      10.76713272       7.90283819       9.69868191        0       0.00000000       0.00000771       0.00002067      -0.00001262
Na      11.05485305       8.85540331       4.22852678        1       0.00000000      -0.00001326      -0.00002445       0.00000239
Na       6.07769847       9.73020116       4.43616690        2       0.00000000       0.00001227      -0.00000321      -0.00001334
Na      11.18581474       4.53807407       5.16849969        3       0.00000000      -0.00002026       0.00002662      -0.00000644
Na       6.97063687       6.35152758       5.15266764        4       0.00000000       0.00003218      -0.00001101       0.00000272
Na       9.82390328       5.87623996      11.91109728        5       0.00000000      -0.00000844      -0.00001887       0.00001705
Na       4.31541538      11.58894538       6.73646843        6       0.00000000      -0.00000941       0.00001006       0.00001158
Na       4.41083007       5.09376199       2.84464850        7       0.00000000      -0.00000077       0.00000020      -0.00000135
8
Lattice="15.0 0.0 0.0 0.0 15.0 0.0 0.0 0.0 15.0" Properties=species:S:1:pos:R:3:tags:I:1:initial_charges:R:1:forces:R:3 unique_id=865a4c9ed41e4f37900bcbe2d378d397 key_value_pairs="_JSON {\"origin\": \"StartingCandidateUnrelaxed\", \"relaxed\": 1, \"generation\": 0, \"extinct\": 0, \"gaid\": 6, \"sigma_E_pa\": 0.046305166530081134, \"sigma_F_mean\": 8.283051049683156e-06, \"raw_score\": 444.5612203702698}" confid=6 relax_id=16 looks_like=0 n_paired=2 energy=-444.5612203702698 pbc="F F F"
Na       8.76040379      12.13610509       8.08335510        0       0.00000000       0.00000701      -0.00000340       0.00000898
Na      11.57543057       4.96552096       4.70780454        1       0.00000000      -0.00000871       0.00001603      -0.00000088
Na       9.60215909       8.59344617       4.51598677        2       0.00000000      -0.00000764      -0.00000114       0.00000865
Na       4.08785710       6.01275212       8.96669271        3       0.00000000      -0.00001211       0.00004262      -0.00001977
Na       4.95255102       4.14833763      11.60309641        4       0.00000000       0.00000676      -0.00001624       0.00001702
Na       6.38173894      11.75565003       5.58510286        5       0.00000000      -0.00001528      -0.00003024      -0.00001095
Na       3.11785713       8.78795867       5.99845390        6       0.00000000       0.00002545       0.00000190       0.00000840
Na       3.48248708       9.49589324      11.75723426        7       0.00000000       0.00000452      -0.00000952      -0.00001146
8
Lattice="15.0 0.0 0.0 0.0 15.0 0.0 0.0 0.0 15.0" Properties=species:S:1:pos:R:3:tags:I:1:forces:R:3 unique_id=4132fda7a7e54158bf42feaf9193b380 key_value_pairs="_JSON {\"extinct\": 0, \"origin\": \"CutAndSplicePairing\", \"sigma_E_pa\": 0.046305041826140494, \"sigma_F_mean\": 7.16386037270402e-06, \"raw_score\": 444.561223171322, \"generation\": 0, \"relaxed\": 1, \"gaid\": 22}" data="_JSON {\"parents\": [2, 5]}" confid=22 relax_id=23 looks_like=0 n_paired=2 energy=-444.561223171322 pbc="F F F"
Na       9.64761020       9.77860017       5.82294888        0      -0.00000297      -0.00001899      -0.00001768
Na       4.00607049       8.72715679       3.91399109        1      -0.00001055      -0.00002427      -0.00002113
Na       5.52406145       9.17597334       6.33082249        2       0.00003185       0.00000252       0.00001366
Na       5.04717186       4.65109191       4.21298514        3      -0.00000189       0.00002670       0.00000126
Na       7.97120612      10.84693143       8.45807527        4      -0.00001133       0.00000673       0.00002116
Na       4.40953942       5.32499353      10.24842661        5       0.00000645      -0.00000437       0.00000380
Na       7.36698355       3.06276692      11.30707552        6      -0.00000601       0.00000427      -0.00000188
Na      12.20574485       5.56983103       5.28451279        7      -0.00000555       0.00000741       0.00000081
8
Lattice="15.0 0.0 0.0 0.0 15.0 0.0 0.0 0.0 15.0" Properties=species:S:1:pos:R:3:tags:I:1:forces:R:3 unique_id=5c8a547111ba458c9c24a57f04560310 key_value_pairs="_JSON {\"extinct\": 0, \"origin\": \"MirrorMutation\", \"sigma_E_pa\": 0.046304888342050377, \"sigma_F_mean\": 1.2091007591368128e-05, \"raw_score\": 444.5612273262327, \"generation\": 0, \"relaxed\": 1, \"gaid\": 35}" data="_JSON {\"parents\": [35]}" confid=35 relax_id=37 looks_like=0 n_paired=0 energy=-444.5612273262327 pbc="F F F"
Na       4.00607049       8.72715679       3.91399109        0      -0.00000803      -0.00002578      -0.00002169
Na       5.04717186       4.65109191       4.21298514        0      -0.00002054       0.00003122       0.00001003
Na       7.90635646       3.91027672       2.53293930        0       0.00001888      -0.00000303       0.00000079
Na       5.52406145       9.17597334       6.33082249        0       0.00002867      -0.00001134       0.00003884
Na       9.12706415       6.31989125      11.46454015        0       0.00000840      -0.00003350       0.00000254
Na       8.16634123       3.18483957       8.81198349        0      -0.00000851       0.00002557       0.00002778
Na      10.59528596       2.64627060       6.49757888        0       0.00000623       0.00000292      -0.00001786
Na       7.77578900       8.11748616       9.65083818        0      -0.00002509       0.00001394      -0.00004044
8
Lattice="15.0 0.0 0.0 0.0 15.0 0.0 0.0 0.0 15.0" Properties=species:S:1:pos:R:3:tags:I:1:forces:R:3 unique_id=d00368b7ef474a31bfeb5a4611f2f074 key_value_pairs="_JSON {\"extinct\": 0, \"origin\": \"CutAndSplicePairing\", \"sigma_E_pa\": 0.046304481562166176, \"sigma_F_mean\": 6.626360844772084e-06, \"raw_score\": 444.5612309781374, \"generation\": 0, \"relaxed\": 1, \"gaid\": 30}" data="_JSON {\"parents\": [9, 5]}" confid=30 relax_id=31 looks_like=0 n_paired=3 energy=-444.5612309781374 pbc="F F F"
Na       7.66071665       6.78397399       9.33604329        0      -0.00000915      -0.00001671       0.00000220
Na       4.90759498       3.38558761      11.13671762        1       0.00000579       0.00001250      -0.00000598
Na      10.24387499       6.22447103      11.70095547        2       0.00000871      -0.00000192      -0.00000209
Na       9.72114504       2.63920240       8.05506301        3       0.00000346       0.00002808      -0.00000868
Na       5.10505091      10.26980134       4.93134317        4       0.00002831      -0.00001702       0.00000713
Na       9.64761020       9.77860017       5.82294888        5      -0.00001084      -0.00000443       0.00000275
Na       7.79290292       6.68352554       5.80938086        6       0.00000572      -0.00000334      -0.00001081
Na      12.20574485       5.56983103       5.28451279        7      -0.00003199       0.00000283       0.00001549
8
Lattice="15.0 0.0 0.0 0.0 15.0 0.0 0.0 0.0 15.0" Properties=species:S:1:pos:R:3:tags:I:1:forces:R:3 unique_id=e26f3b7062ee4e6684fc6f65d21d3c18 key_value_pairs="_JSON {\"extinct\": 0, \"origin\": \"RattleMutation\", \"sigma_E_pa\": 0.046304480185542514, \"sigma_F_mean\": 8.698217333552153e-06, \"raw_score\": 444.56123196232403, \"generation\": 0, \"relaxed\": 1, \"gaid\": 38}" data="_JSON {\"parents\": [38]}" confid=38 relax_id=40 looks_like=0 n_paired=1 energy=-444.56123196232403 pbc="F F F"
Na       6.38173894      11.75565003       5.58510286        0      -0.00003483      -0.00000276      -0.00001152
Na       4.08785710       6.01275212       8.96669271        1      -0.00000521       0.00003393      -0.00000919
Na       4.95255102       4.14833763      11.60309641        2       0.00000633      -0.00001525       0.00001578
Na       3.52802138       8.71873629       6.38979301        3       0.00000868       0.00000956      -0.00000412
Na       3.48248708       9.49589324      11.75723426        4      -0.00000133      -0.00001157      -0.00000803
Na       9.02694427       9.51492015       6.03489732        5       0.00002578      -0.00002648      -0.00002254
Na       7.97120612      10.84693143       8.45807527        6       0.00000287       0.00000972       0.00003897
Na      12.20574485       5.56983103       5.28451279        7      -0.00000229       0.00000284       0.00000066
8
Lattice="15.0 0.0 0.0 0.0 15.0 0.0 0.0 0.0 15.0" Properties=species:S:1:pos:R:3:tags:I:1:forces:R:3 unique_id=7d812134c4b245e88f4c8965e495d39d key_value_pairs="_JSON {\"extinct\": 0, \"origin\": \"RattleMutation\", \"sigma_E_pa\": 0.04630447898105525, \"sigma_F_mean\": 5.145947421185424e-06, \"raw_score\": 444.56123018419964, \"generation\": 0, \"relaxed\": 1, \"gaid\": 32}" data="_JSON {\"parents\": [32]}" confid=32 relax_id=34 looks_like=0 n_paired=1 energy=-444.56123018419964 pbc="F F F"
Na       5.10505091      10.26980134       4.93134317        0       0.00001248       0.00000514       0.00000236
Na       9.64761020       9.77860017       5.82294888        1      -0.00001153      -0.00000788       0.00000326
Na       7.02517583       7.26388934       5.38503673        2       0.00000014      -0.00000932       0.00001568
Na      12.20574485       5.56983103       5.28451279        3      -0.00001038      -0.00000287       0.00001325
Na       7.66071665       6.78397399       9.33604329        4      -0.00000268      -0.00000531      -0.00003000
Na       5.47542520       2.70769224      11.69604268        5      -0.00000507      -0.00000059       0.00000244
Na      10.24387499       6.22447103      11.70095547        6       0.00001012      -0.00000070      -0.00000156
Na       9.72114504       2.63920240       8.05506301        7       0.00000692       0.00002153      -0.00000543
8
Lattice="15.0 0.0 0.0 0.0 15.0 0.0 0.0 0.0 15.0" Properties=species:S:1:pos:R:3:tags:I:1:initial_charges:R:1:forces:R:3 unique_id=35ffd47668db4f5b89383e8952ba1c13 key_value_pairs="_JSON {\"origin\": \"StartingCandidateUnrelaxed\", \"relaxed\": 1, \"generation\": 0, \"extinct\": 0, \"gaid\": 2, \"sigma_E_pa\": 0.046303323066888, \"sigma_F_mean\": 8.539817549580722e-06, \"raw_score\": 444.56124992597523}" confid=2 relax_id=12 looks_like=0 n_paired=3 energy=-444.56124992597523 pbc="F F F"
Na      11.56842148       2.99802329      12.08624170        0       0.00000000      -0.00000098       0.00001170      -0.00001781
Na       4.00607049       8.72715679       3.91399109        1       0.00000000      -0.00000635      -0.00002676      -0.00002150
Na       5.52406145       9.17597334       6.33082249        2       0.00000000       0.00001126      -0.00000223       0.00001820
Na      11.62653640       5.66234167       8.37817635        3       0.00000000      -0.00001966      -0.00001647       0.00000296
Na       5.04717186       4.65109191       4.21298514        4       0.00000000      -0.00002353       0.00002962       0.00000917
Na       7.97120612      10.84693143       8.45807527        5       0.00000000       0.00000333      -0.00000214       0.00000066
Na       8.18580895       4.26686714       6.10337800        6       0.00000000       0.00002143       0.00000726       0.00002265
Na       7.90635646       3.91027672       2.53293930        7       0.00000000       0.00001450      -0.00000099      -0.00001432
8
Lattice="15.0 0.0 0.0 0.0 15.0 0.0 0.0 0.0 15.0" Properties=species:S:1:pos:R:3:tags:I:1:forces:R:3 unique_id=eb7d450447094115b6f39d37ee574efd key_value_pairs="_JSON {\"extinct\": 0, \"origin\": \"RattleMutation\", \"sigma_E_pa\": 0.046302668983105456, \"sigma_F_mean\": 7.674935576647922e-06, \"raw_score\": 444.5612587161322, \"generation\": 0, \"relaxed\": 1, \"gaid\": 41}" data="_JSON {\"parents\": [41]}" confid=41 relax_id=43 looks_like=0 n_paired=1 energy=-444.5612587161322 pbc="F F F"
Na       9.02694427       9.51492015       6.03489732        0      -0.00000060      -0.00001226      -0.00001047
Na       4.08785710       6.01275212       8.96669271        1      -0.00000734       0.00003441      -0.00001163
Na       4.95255102       4.14833763      11.60309641        2       0.00000581      -0.00001266       0.00001596
Na       3.52802138       8.71873629       6.38979301        3      -0.00001601      -0.00001689       0.00001670
Na      12.20574485       5.56983103       5.28451279        4      -0.00000199       0.00000243       0.00000042
Na       8.50550281      12.07940770       8.28378317        5      -0.00000796       0.00001025       0.00001029
Na       5.60369574      11.34066355       5.98577297        6       0.00002291       0.00001245      -0.00000303
Na       3.15793597       9.86163778      11.13350478        7       0.00000517      -0.00001773      -0.00001825
8
Lattice="15.0 0.0 0.0 0.0 15.0 0.0 0.0 0.0 15.0" Properties=species:S:1:pos:R:3:tags:I:1:initial_charges:R:1:forces:R:3 unique_id=229d973e916746baab46e5a55141ddd7 key_value_pairs="_JSON {\"origin\": \"StartingCandidateUnrelaxed\", \"relaxed\": 1, \"generation\": 0, \"extinct\": 0, \"gaid\": 9, \"sigma_E_pa\": 0.04630033642974487, \"sigma_F_mean\": 9.229804359009455e-06, \"raw_score\": 444.5612941188025}" confid=9 relax_id=19 looks_like=0 n_paired=4 energy=-444.5612941188025 pbc="F F F"
Na       7.66071665       6.78397399       9.33604329        0       0.00000000      -0.00000208      -0.00001710      -0.00002512
Na       5.25267714       8.64506305       6.69825737        1       0.00000000       0.00001170      -0.00001760       0.00000845
Na       4.73495673       8.10324104       2.93917726        2       0.00000000       0.00000197      -0.00000161       0.00000965
Na       5.77942380       3.83680697       8.01209460        3       0.00000000       0.00002446       0.00000773      -0.00002700
Na       4.90759498       3.38558761      11.13671762        4       0.00000000      -0.00000204       0.00000988       0.00001809
Na      11.59548641       6.10057177       7.59816887        5       0.00000000      -0.00003506      -0.00000598       0.00002958
Na      10.24387499       6.22447103      11.70095547        6       0.00000000       0.00001442      -0.00000419      -0.00001539
Na       9.72114504       2.63920240       8.05506301        7       0.00000000      -0.00001336       0.00002887       0.00000173
