8
Lattice="10.0 0.0 0.0 0.0 10.0 0.0 0.0 0.0 10.0" Properties=species:S:1:pos:R:3:tags:I:1:forces:R:3 unique_id=2b184f33e5c3420e9c0c962e6cc34c13 key_value_pairs="_JSON {\"extinct\": 0, \"origin\": \"CutAndSplicePairing\", \"sigma_E_pa\": 0.04629882071568255, \"sigma_F_mean\": 8.719290335071655e-06, \"raw_score\": 444.56132517471525, \"generation\": 0, \"relaxed\": 1, \"gaid\": 38}" data="_JSON {\"parents\": [36, 11]}" confid=38 relax_id=39 looks_like=0 n_paired=0 energy=-444.56132517471525 pbc="F F F"
Na       7.28030207       5.03713899       7.25526009        0       0.00003157      -0.00000668       0.00000322
Na       3.81745072       5.33253142       6.79209474        1      -0.00001211      -0.00001928      -0.00000133
Na       3.57778577       3.13113339       3.67450078        2      -0.00002541       0.00001301       0.00002957
Na       6.77109244       3.09831958       2.55089533        3       0.00003478       0.00001147       0.00000015
Na       6.80690914       7.49768580       3.20870796        4       0.00000668      -0.00000693      -0.00000433
Na       4.23747604       5.37805936       2.63533559        5      -0.00000935       0.00000237      -0.00000695
Na       2.63274300       7.20415369       4.41702422        6      -0.00001527       0.00001904      -0.00001806
Na       5.68163742       6.54902412       6.03060341        7      -0.00001089      -0.00001299      -0.00000228
8
Lattice="10.0 0.0 0.0 0.0 10.0 0.0 0.0 0.0 10.0" Properties=species:S:1:pos:R:3:tags:I:1:forces:R:3 unique_id=59038145d3bc44f9984da303a9f0d0a1 key_value_pairs="_JSON {\"extinct\": 0, \"origin\": \"RattleMutation\", \"sigma_E_pa\": 0.04629837278571095, \"sigma_F_mean\": 1.1875227510632521e-05, \"raw_score\": 444.56133534314813, \"generation\": 0, \"relaxed\": 1, \"gaid\": 43}" data="_JSON {\"parents\": [43]}" confid=43 relax_id=45 looks_like=0 n_paired=0 energy=-444.56133534314813 pbc="F F F"
Na       3.57778577       3.13113339       3.67450078        0       0.00003496       0.00000195       0.00002639
Na       6.67560320       5.46542605       4.18346267        1       0.00002230      -0.00001734       0.00000540
Na       7.21677387       2.93240367       5.46774484        2      -0.00001471      -0.00002008       0.00000185
Na       5.97225475       3.50477473       7.47048860        3       0.00000271       0.00000351      -0.00001123
Na       5.16265394       7.72649500       5.79164794        4       0.00002050       0.00003429       0.00001522
Na       3.81745072       5.33253142       6.79209474        5      -0.00000750      -0.00003174       0.00000519
Na       3.35607483       6.66230323       4.13692039        6      -0.00005117       0.00002396      -0.00002480
Na       4.94320543       6.30615889       2.09772118        7      -0.00000710       0.00000545      -0.00001802
8
Lattice="10.0 0.0 0.0 0.0 10.0 0.0 0.0 0.0 10.0" Properties=species:S:1:pos:R:3:tags:I:1:forces:R:3 unique_id=70ffff774b054a83b14de8576a857fbd key_value_pairs="_JSON {\"extinct\": 0, \"origin\": \"CutAndSplicePairing\", \"sigma_E_pa\": 0.04629724408750493, \"sigma_F_mean\": 1.3579692175664379e-05, \"raw_score\": 444.56134810972907, \"generation\": 0, \"relaxed\": 1, \"gaid\": 27}" data="_JSON {\"parents\": [11, 8]}" confid=27 relax_id=28 looks_like=0 n_paired=1 energy=-444.56134810972907 pbc="F F F"
Na       3.63047345       5.49203050       7.02079591        0       0.00003414      -0.00002358      -0.00002198
Na       2.63274300       7.20415369       4.41702422        1      -0.00000255      -0.00000965      -0.00000677
Na       2.70719218       2.79572567       4.38886255        2       0.00001413       0.00005195       0.00001850
Na       7.31908746       5.31792862       7.48950404        3       0.00001102       0.00002080       0.00004551
Na       4.25639530       6.38955674       2.59090067        4      -0.00002494      -0.00001037      -0.00000772
Na       6.67560320       5.46542605       4.18346267        5      -0.00002403       0.00002829       0.00000247
Na       4.94640712       2.82978106       2.61009126        6       0.00001469      -0.00001771      -0.00003116
Na       7.21677387       2.93240367       5.46774484        7      -0.00002247      -0.00003973       0.00000115
8
Lattice="10.0 0.0 0.0 0.0 10.0 0.0 0.0 0.0 10.0" Properties=species:S:1:pos:R:3:tags:I:1:forces:R:3 unique_id=7c0df2f8db8a42018a5faebf34c892ce key_value_pairs="_JSON {\"extinct\": 0, \"origin\": \"MirrorMutation\", \"sigma_E_pa\": 0.046297173751057415, \"sigma_F_mean\": 8.684375676040417e-06, \"raw_score\": 444.5613518874722, \"generation\": 0, \"relaxed\": 1, \"gaid\": 40}" data="_JSON {\"parents\": [40]}" confid=40 relax_id=42 looks_like=0 n_paired=1 energy=-444.5613518874722 pbc="F F F"
Na       3.57778577       3.13113339       3.67450078        0       0.00003886       0.00000683       0.00000767
Na       4.25639530       6.38955674       2.59090067        0      -0.00001241       0.00000618      -0.00001732
Na       6.67560320       5.46542605       4.18346267        0      -0.00000900       0.00000686      -0.00000075
Na       7.21677387       2.93240367       5.46774484        0      -0.00001149      -0.00002648      -0.00000555
Na       2.55767371       4.26145028       6.40211400        0       0.00003656       0.00000938       0.00001382
Na       3.24363265       7.51173026       5.29886279        0      -0.00001818       0.00001257      -0.00000189
Na       5.83668390       6.39497555       6.42659601        0      -0.00000589       0.00000341      -0.00000907
Na       6.39622271       3.84160069       7.66176479        0      -0.00001846      -0.00001875       0.00001309
8
Lattice="10.0 0.0 0.0 0.0 10.0 0.0 0.0 0.0 10.0" Properties=species:S:1:pos:R:3:tags:I:1:forces:R:3 unique_id=82e1fce35c344085b34711956566c7a5 key_value_pairs="_JSON {\"extinct\": 0, \"origin\": \"CutAndSplicePairing\", \"sigma_E_pa\": 0.046297049971562206, \"sigma_F_mean\": 1.5975302261586307e-05, \"raw_score\": 444.5613524478934, \"generation\": 0, \"relaxed\": 1, \"gaid\": 36}" data="_JSON {\"parents\": [29, 34]}" confid=36 relax_id=37 looks_like=0 n_paired=1 energy=-444.5613524478934 pbc="F F F"
Na       4.84260121       2.67031958       6.68618066        0       0.00001882      -0.00003103      -0.00000636
Na       5.16265394       7.72649500       5.79164794        1       0.00003793       0.00004064       0.00002062
Na       7.28030207       5.03713899       7.25526009        2       0.00002133       0.00001544      -0.00001149
Na       3.81745072       5.33253142       6.79209474        3      -0.00003510      -0.00001477       0.00003539
Na       3.57778577       3.13113339       3.67450078        4      -0.00003623       0.00002203      -0.00001033
Na       5.30976270       6.40114913       3.71241463        5       0.00004310      -0.00003317      -0.00000475
Na       6.77109244       3.09831958       2.55089533        6       0.00001356      -0.00000224       0.00000944
Na       2.63274300       7.20415369       4.41702422        7      -0.00006342       0.00000311      -0.00003253
8
Lattice="10.0 0.0 0.0 0.0 10.0 0.0 0.0 0.0 10.0" Properties=species:S:1:pos:R:3:tags:I:1:forces:R:3 unique_id=cc504c6c505e4d3685d692ca39ab4d10 key_value_pairs="_JSON {\"extinct\": 0, \"origin\": \"CutAndSplicePairing\", \"sigma_E_pa\": 0.046297032533476105, \"sigma_F_mean\": 7.850977369466007e-06, \"raw_score\": 444.5613517075325, \"generation\": 0, \"relaxed\": 1, \"gaid\": 34}" data="_JSON {\"parents\": [22, 32]}" confid=34 relax_id=35 looks_like=0 n_paired=2 energy=-444.5613517075325 pbc="F F F"
Na       4.84260121       2.67031958       6.68618066        0       0.00000904       0.00001271       0.00000425
Na       4.57549011       7.41707270       7.44765454        1      -0.00000262      -0.00002953       0.00000763
Na       6.69724989       4.01949377       5.88596944        2      -0.00000021      -0.00000655       0.00002453
Na       3.57778577       3.13113339       3.67450078        3      -0.00002808       0.00001795      -0.00000945
Na       5.30976270       6.40114913       3.71241463        4       0.00001458      -0.00001263      -0.00000633
Na       6.77109244       3.09831958       2.55089533        5       0.00000926       0.00000150       0.00000002
Na       6.65611469       7.30587641       5.43591458        6       0.00001101       0.00002272      -0.00002022
Na       2.63274300       7.20415369       4.41702422        7      -0.00001298      -0.00000618      -0.00000043
8
Lattice="10.0 0.0 0.0 0.0 10.0 0.0 0.0 0.0 10.0" Properties=species:S:1:pos:R:3:tags:I:1:initial_charges:R:1:forces:R:3 unique_id=ae716af0b93c4b5baa22e6dc34a3bbd5 key_value_pairs="_JSON {\"origin\": \"StartingCandidateUnrelaxed\", \"relaxed\": 1, \"generation\": 0, \"extinct\": 0, \"gaid\": 11, \"sigma_E_pa\": 0.04629701533148201, \"sigma_F_mean\": 9.037205145483273e-06, \"raw_score\": 444.5613556244007}" confid=11 relax_id=21 looks_like=0 n_paired=3 energy=-444.5613556244007 pbc="F F F"
Na       3.63047345       5.49203050       7.02079591        0       0.00000000      -0.00001197      -0.00002272       0.00002082
Na       6.80690914       7.49768580       3.20870796        1       0.00000000      -0.00000261       0.00000520      -0.00001066
Na       4.23747604       5.37805936       2.63533559        2       0.00000000      -0.00000280      -0.00000186      -0.00002493
Na       2.63274300       7.20415369       4.41702422        3       0.00000000      -0.00000135      -0.00000241      -0.00001124
Na       5.23933373       3.92063116       4.91666093        4       0.00000000       0.00003425      -0.00000700      -0.00002276
Na       6.68025332       2.88494095       6.53968972        5       0.00000000      -0.00002358       0.00000646       0.00000277
Na       5.68163742       6.54902412       6.03060341        6       0.00000000       0.00001738       0.00001290       0.00002714
Na       2.70719218       2.79572567       4.38886255        7       0.00000000      -0.00000933       0.00000945       0.00001885
8
Lattice="10.0 0.0 0.0 0.0 10.0 0.0 0.0 0.0 10.0" Properties=species:S:1:pos:R:3:tags:I:1:forces:R:3 unique_id=b7e46ec3347949d18652494ff7f3a229 key_value_pairs="_JSON {\"extinct\": 0, \"origin\": \"CutAndSplicePairing\", \"sigma_E_pa\": 0.04629700505149741, \"sigma_F_mean\": 9.437458606162252e-06, \"raw_score\": 444.5613541703988, \"generation\": 0, \"relaxed\": 1, \"gaid\": 32}" data="_JSON {\"parents\": [10, 11]}" confid=32 relax_id=33 looks_like=0 n_paired=1 energy=-444.5613541703988 pbc="F F F"
Na       5.30976270       6.40114913       3.71241463        0       0.00001373      -0.00002032      -0.00001225
Na       6.77109244       3.09831958       2.55089533        1      -0.00000317      -0.00000558      -0.00000093
Na       6.65611469       7.30587641       5.43591458        2      -0.00001591      -0.00001938       0.00001001
Na       3.63047345       5.49203050       7.02079591        3       0.00000860      -0.00000783       0.00002709
Na       2.63274300       7.20415369       4.41702422        4      -0.00000383      -0.00001561      -0.00000505
Na       5.23933373       3.92063116       4.91666093        5       0.00000370       0.00000009       0.00000972
Na       6.68025332       2.88494095       6.53968972        6      -0.00002627       0.00003594      -0.00002668
Na       2.70719218       2.79572567       4.38886255        7       0.00002317       0.00003268      -0.00000191
8
Lattice="10.0 0.0 0.0 0.0 10.0 0.0 0.0 0.0 10.0" Properties=species:S:1:pos:R:3:tags:I:1:initial_charges:R:1:forces:R:3 unique_id=ca4011c872204e37bcd1984e92439b66 key_value_pairs="_JSON {\"origin\": \"StartingCandidateUnrelaxed\", \"relaxed\": 1, \"generation\": 0, \"extinct\": 0, \"gaid\": 8, \"sigma_E_pa\": 0.04629671304895705, \"sigma_F_mean\": 1.3116263325508968e-05, \"raw_score\": 444.5613597654715}" confid=8 relax_id=18 looks_like=0 n_paired=3 energy=-444.5613597654715 pbc="F F F"
Na       7.31908746       5.31792862       7.48950404        0       0.00000000      -0.00001933       0.00002357       0.00003234
Na       4.34854367       5.03598140       5.00787306        1       0.00000000      -0.00000318      -0.00000434       0.00003409
Na       4.25639530       6.38955674       2.59090067        2       0.00000000      -0.00003859       0.00002064      -0.00001547
Na       3.24806822       3.05003326       5.62374174        3       0.00000000       0.00002441       0.00002991       0.00000248
Na       6.67560320       5.46542605       4.18346267        4       0.00000000       0.00000601       0.00002541      -0.00000157
Na       3.02421462       6.89470648       6.48994893        5       0.00000000       0.00002070      -0.00000283      -0.00000901
Na       4.94640712       2.82978106       2.61009126        6       0.00000000       0.00000382      -0.00003537      -0.00004387
Na       7.21677387       2.93240367       5.46774484        7       0.00000000       0.00000617      -0.00005699       0.00000101
8
Lattice="10.0 0.0 0.0 0.0 10.0 0.0 0.0 0.0 10.0" Properties=species:S:1:pos:R:3:tags:I:1:forces:R:3 unique_id=9ec378eeddef48a495636241340c0b0b key_value_pairs="_JSON {\"extinct\": 0, \"origin\": \"RattleMutation\", \"sigma_E_pa\": 0.04629627884430258, \"sigma_F_mean\": 1.1683401684244267e-05, \"raw_score\": 444.561366414286, \"generation\": 0, \"relaxed\": 1, \"gaid\": 29}" data="_JSON {\"parents\": [29]}" confid=29 relax_id=31 looks_like=0 n_paired=2 energy=-444.561366414286 pbc="F F F"
Na       5.16265394       7.72649500       5.79164794        0       0.00003566       0.00003492       0.00001442
Na       6.39209869       4.65173030       4.30922901        1      -0.00000341      -0.00000892      -0.00001264
Na       7.28030207       5.03713899       7.25526009        2       0.00002858      -0.00000011       0.00003509
Na       5.35342600       3.23893346       2.77077232        3       0.00001383      -0.00002120      -0.00000704
Na       3.81745072       5.33253142       6.79209474        4      -0.00000450      -0.00001912       0.00001928
Na       2.63274300       7.20415369       4.41702422        5      -0.00003320       0.00000241      -0.00002121
Na       2.75834257       3.48759016       4.85308693        6      -0.00001484       0.00000089      -0.00001374
Na       4.25639530       6.38955674       2.59090067        7      -0.00002213       0.00001113      -0.00001415
